
     Program PWSCF v.6.5 starts on 13Aug2020 at  0:21:19 

     This program is part of the open-source Quantum ESPRESSO suite
     for quantum simulation of materials; please cite
         "P. Giannozzi et al., J. Phys.:Condens. Matter 21 395502 (2009);
         "P. Giannozzi et al., J. Phys.:Condens. Matter 29 465901 (2017);
          URL http://www.quantum-espresso.org", 
     in publications or presentations arising from this work. More details at
     http://www.quantum-espresso.org/quote

     Parallel version (MPI), running on     2 processors

     MPI processes distributed on     1 nodes
     R & G space division:  proc/nbgrp/npool/nimage =       2
     Reading input from FeAlb158.in

     Current dimensions of program PWSCF are:
     Max number of different atomic species (ntypx) = 10
     Max number of k-points (npk) =  40000
     Max angular momentum in pseudopotentials (lmaxx) =  3

     IMPORTANT: XC functional enforced from input :
     Exchange-correlation= PBE
                           (   1   4   3   4   0   0   0)
     Any further DFT definition will be discarded
     Please, verify this is what you really want

               file Fe.pbe-spn-kjpaw_psl.0.2.1.UPF: wavefunction(s)  3D renormalized
               file Al.pbe-n-kjpaw_psl.0.1.UPF: wavefunction(s)  3S renormalized

     Subspace diagonalization in iterative solution of the eigenvalue problem:
     a serial algorithm will be used

     Message from routine setup:
     using ibrav=0 with symmetry is DISCOURAGED, use correct ibrav instead

     Parallelization info
     --------------------
     sticks:   dense  smooth     PW     G-vecs:    dense   smooth      PW
     Min        1038     412    130                48996    12396    2074
     Max        1039     413    131                48999    12397    2075
     Sum        2077     825    261                97995    24793    4149



     bravais-lattice index     =            0
     lattice parameter (alat)  =       4.8581  a.u.
     unit-cell volume          =     313.7736 (a.u.)^3
     number of atoms/cell      =            4
     number of atomic types    =            2
     number of electrons       =        38.00
     number of Kohn-Sham states=           23
     kinetic-energy cutoff     =      70.0000  Ry
     charge density cutoff     =     700.0000  Ry
     convergence threshold     =      1.0E-08
     mixing beta               =       0.7000
     number of iterations used =            8  plain     mixing
     Exchange-correlation= PBE
                           (   1   4   3   4   0   0   0)

     celldm(1)=   4.858098  celldm(2)=   0.000000  celldm(3)=   0.000000
     celldm(4)=   0.000000  celldm(5)=   0.000000  celldm(6)=   0.000000

     crystal axes: (cart. coord. in units of alat)
               a(1) = (   1.000000   0.000000   0.000000 )  
               a(2) = (   0.000000   1.580000   0.000000 )  
               a(3) = (   0.000000   0.000000   1.732050 )  

     reciprocal axes: (cart. coord. in units 2 pi/alat)
               b(1) = (  1.000000  0.000000  0.000000 )  
               b(2) = (  0.000000  0.632911  0.000000 )  
               b(3) = (  0.000000  0.000000  0.577351 )  


     PseudoPot. # 1 for Fe read from file:
     ./Fe.pbe-spn-kjpaw_psl.0.2.1.UPF
     MD5 check sum: 4338034a7fd945be4bb7db5fd3b2d142
     Pseudo is Projector augmented-wave + core cor, Zval = 16.0
     Generated using "atomic" code by A. Dal Corso v.5.0.2 svn rev. 9415
     Shape of augmentation charge: PSQ
     Using radial grid of 1191 points,  6 beta functions with: 
                l(1) =   0
                l(2) =   0
                l(3) =   1
                l(4) =   1
                l(5) =   2
                l(6) =   2
     Q(r) pseudized with 0 coefficients 


     PseudoPot. # 2 for Al read from file:
     ./Al.pbe-n-kjpaw_psl.0.1.UPF
     MD5 check sum: 9111391c6252b599ac5002cf021b5091
     Pseudo is Projector augmented-wave + core cor, Zval =  3.0
     Generated using "atomic" code by A. Dal Corso v.5.0.2 svn rev. 9415
     Shape of augmentation charge: PSQ
     Using radial grid of 1135 points,  4 beta functions with: 
                l(1) =   0
                l(2) =   0
                l(3) =   1
                l(4) =   1
     Q(r) pseudized with 0 coefficients 


     atomic species   valence    mass     pseudopotential
        Fe            16.00    55.84500     Fe( 1.00)
        Al             3.00    26.98100     Al( 1.00)

      8 Sym. Ops., with inversion, found ( 6 have fractional translation)



   Cartesian axes

     site n.     atom                  positions (alat units)
         1           Fe  tau(   1) = (   0.7500000   1.1850000   1.5877123  )
         2           Fe  tau(   2) = (   0.2500000   0.3950000   0.1443375  )
         3           Al  tau(   3) = (   0.2500000   1.1850000   0.7216874  )
         4           Al  tau(   4) = (   0.7500000   0.3950000   1.0103624  )

     number of k points=    36  Marzari-Vanderbilt smearing, width (Ry)=  0.0050
                       cart. coord. in units 2pi/alat
        k(    1) = (   0.0000000   0.0000000   0.0000000), wk =   0.0208333
        k(    2) = (   0.0000000   0.0000000   0.1443377), wk =   0.0416667
        k(    3) = (   0.0000000   0.0000000  -0.2886753), wk =   0.0208333
        k(    4) = (   0.0000000   0.1582278   0.0000000), wk =   0.0416667
        k(    5) = (   0.0000000   0.1582278   0.1443377), wk =   0.0833333
        k(    6) = (   0.0000000   0.1582278  -0.2886753), wk =   0.0416667
        k(    7) = (   0.0000000  -0.3164557   0.0000000), wk =   0.0208333
        k(    8) = (   0.0000000  -0.3164557   0.1443377), wk =   0.0416667
        k(    9) = (   0.0000000  -0.3164557  -0.2886753), wk =   0.0208333
        k(   10) = (   0.1666667   0.0000000   0.0000000), wk =   0.0416667
        k(   11) = (   0.1666667   0.0000000   0.1443377), wk =   0.0833333
        k(   12) = (   0.1666667   0.0000000  -0.2886753), wk =   0.0416667
        k(   13) = (   0.1666667   0.1582278   0.0000000), wk =   0.0833333
        k(   14) = (   0.1666667   0.1582278   0.1443377), wk =   0.1666667
        k(   15) = (   0.1666667   0.1582278  -0.2886753), wk =   0.0833333
        k(   16) = (   0.1666667  -0.3164557   0.0000000), wk =   0.0416667
        k(   17) = (   0.1666667  -0.3164557   0.1443377), wk =   0.0833333
        k(   18) = (   0.1666667  -0.3164557  -0.2886753), wk =   0.0416667
        k(   19) = (   0.3333333   0.0000000   0.0000000), wk =   0.0416667
        k(   20) = (   0.3333333   0.0000000   0.1443377), wk =   0.0833333
        k(   21) = (   0.3333333   0.0000000  -0.2886753), wk =   0.0416667
        k(   22) = (   0.3333333   0.1582278   0.0000000), wk =   0.0833333
        k(   23) = (   0.3333333   0.1582278   0.1443377), wk =   0.1666667
        k(   24) = (   0.3333333   0.1582278  -0.2886753), wk =   0.0833333
        k(   25) = (   0.3333333  -0.3164557   0.0000000), wk =   0.0416667
        k(   26) = (   0.3333333  -0.3164557   0.1443377), wk =   0.0833333
        k(   27) = (   0.3333333  -0.3164557  -0.2886753), wk =   0.0416667
        k(   28) = (  -0.5000000   0.0000000   0.0000000), wk =   0.0208333
        k(   29) = (  -0.5000000   0.0000000   0.1443377), wk =   0.0416667
        k(   30) = (  -0.5000000   0.0000000  -0.2886753), wk =   0.0208333
        k(   31) = (  -0.5000000   0.1582278   0.0000000), wk =   0.0416667
        k(   32) = (  -0.5000000   0.1582278   0.1443377), wk =   0.0833333
        k(   33) = (  -0.5000000   0.1582278  -0.2886753), wk =   0.0416667
        k(   34) = (  -0.5000000  -0.3164557   0.0000000), wk =   0.0208333
        k(   35) = (  -0.5000000  -0.3164557   0.1443377), wk =   0.0416667
        k(   36) = (  -0.5000000  -0.3164557  -0.2886753), wk =   0.0208333

     Dense  grid:    97995 G-vectors     FFT dimensions: (  48,  72,  72)

     Smooth grid:    24793 G-vectors     FFT dimensions: (  30,  48,  45)

     Estimated max dynamical RAM per process >     205.07 MB

     Estimated total dynamical RAM >     410.13 MB

     Check: negative core charge=   -0.000013

     Initial potential from superposition of free atoms

     starting charge   37.99454, renormalised to   38.00000
     Starting wfcs are   34 randomized atomic wfcs
     Checking if some PAW data can be deallocated... 

     total cpu time spent up to now is        5.6 secs

     Self-consistent Calculation

     iteration #  1     ecut=    70.00 Ry     beta= 0.70
     Davidson diagonalization with overlap
     ethr =  1.00E-02,  avg # of iterations =  3.1

     Threshold (ethr) on eigenvalues was too large:
     Diagonalizing with lowered threshold

     Davidson diagonalization with overlap
     ethr =  3.22E-04,  avg # of iterations =  3.9

     total cpu time spent up to now is       14.8 secs

     total energy              =    -737.47874150 Ry
     Harris-Foulkes estimate   =    -737.57405191 Ry
     estimated scf accuracy    <       0.13391484 Ry

     iteration #  2     ecut=    70.00 Ry     beta= 0.70
     Davidson diagonalization with overlap
     ethr =  3.52E-04,  avg # of iterations =  3.6

     total cpu time spent up to now is       20.2 secs

     total energy              =    -737.36515119 Ry
     Harris-Foulkes estimate   =    -737.66456502 Ry
     estimated scf accuracy    <       1.14919211 Ry

     iteration #  3     ecut=    70.00 Ry     beta= 0.70
     Davidson diagonalization with overlap
     ethr =  3.52E-04,  avg # of iterations =  3.3

     total cpu time spent up to now is       25.6 secs

     total energy              =    -737.52165860 Ry
     Harris-Foulkes estimate   =    -737.55143269 Ry
     estimated scf accuracy    <       0.12824286 Ry

     iteration #  4     ecut=    70.00 Ry     beta= 0.70
     Davidson diagonalization with overlap
     ethr =  3.37E-04,  avg # of iterations =  2.0

     total cpu time spent up to now is       29.8 secs

     total energy              =    -737.53573810 Ry
     Harris-Foulkes estimate   =    -737.53617394 Ry
     estimated scf accuracy    <       0.00095089 Ry

     iteration #  5     ecut=    70.00 Ry     beta= 0.70
     Davidson diagonalization with overlap
     ethr =  2.50E-06,  avg # of iterations =  3.7

     total cpu time spent up to now is       36.5 secs

     total energy              =    -737.53648560 Ry
     Harris-Foulkes estimate   =    -737.53653739 Ry
     estimated scf accuracy    <       0.00024511 Ry

     iteration #  6     ecut=    70.00 Ry     beta= 0.70
     Davidson diagonalization with overlap
     ethr =  6.45E-07,  avg # of iterations =  1.5

     total cpu time spent up to now is       40.7 secs

     total energy              =    -737.53650567 Ry
     Harris-Foulkes estimate   =    -737.53650753 Ry
     estimated scf accuracy    <       0.00000388 Ry

     iteration #  7     ecut=    70.00 Ry     beta= 0.70
     Davidson diagonalization with overlap
     ethr =  1.02E-08,  avg # of iterations =  3.6

     total cpu time spent up to now is       46.3 secs

     total energy              =    -737.53650792 Ry
     Harris-Foulkes estimate   =    -737.53650838 Ry
     estimated scf accuracy    <       0.00000129 Ry

     iteration #  8     ecut=    70.00 Ry     beta= 0.70
     Davidson diagonalization with overlap
     ethr =  3.39E-09,  avg # of iterations =  1.1

     total cpu time spent up to now is       50.3 secs

     total energy              =    -737.53650808 Ry
     Harris-Foulkes estimate   =    -737.53650810 Ry
     estimated scf accuracy    <       0.00000005 Ry

     iteration #  9     ecut=    70.00 Ry     beta= 0.70
     Davidson diagonalization with overlap
     ethr =  1.43E-10,  avg # of iterations =  3.6

     total cpu time spent up to now is       55.9 secs

     End of self-consistent calculation

          k = 0.0000 0.0000 0.0000 (  3119 PWs)   bands (ev):

   -72.1358 -72.0832 -38.4325 -38.1539 -38.1484 -38.0677 -38.0572 -38.0536
     3.2905   9.7799  10.4631  11.1409  11.1736  12.2708  12.6569  13.5202
    13.5331  13.8329  14.4018  14.5906  15.4884  15.5055  17.0214

          k = 0.0000 0.0000 0.1443 (  3112 PWs)   bands (ev):

   -72.1357 -72.0832 -38.4325 -38.1539 -38.1482 -38.0675 -38.0574 -38.0537
     3.6889   8.1188  10.5768  10.6049  12.0080  12.6717  13.4379  13.4472
    13.5266  13.8682  14.3652  14.6054  15.4862  15.5005  17.9726

          k = 0.0000 0.0000-0.2887 (  3134 PWs)   bands (ev):

   -72.1358 -72.0832 -38.4323 -38.1543 -38.1483 -38.0679 -38.0581 -38.0539
     4.3106   6.7709  10.2593  10.8797  12.5980  12.6807  13.1468  13.5331
    13.7842  14.3330  14.6163  14.7967  15.3981  15.4955  15.9520

          k = 0.0000 0.1582 0.0000 (  3110 PWs)   bands (ev):

   -72.1281 -72.0909 -38.3970 -38.2030 -38.1414 -38.0802 -38.0509 -38.0412
     3.8541   7.9271  10.7877  10.8465  11.6289  12.1542  13.3550  13.6490
    13.7870  13.8426  14.4195  14.5583  15.3125  15.3373  18.6656

          k = 0.0000 0.1582 0.1443 (  3112 PWs)   bands (ev):

   -72.1281 -72.0909 -38.3969 -38.2032 -38.1414 -38.0804 -38.0512 -38.0413
     4.2357   8.0995   8.8083  11.0543  12.1279  12.2930  13.2961  13.5364
    13.6462  14.1927  14.4177  14.5403  15.3215  15.4912  18.4086

          k = 0.0000 0.1582-0.2887 (  3114 PWs)   bands (ev):

   -72.1281 -72.0909 -38.3968 -38.2034 -38.1414 -38.0803 -38.0518 -38.0411
     4.8158   7.3541   8.5694  10.6313  12.3928  12.4965  13.2259  13.2925
    13.6431  14.4157  14.5234  14.6882  14.8345  15.3297  18.4032

          k = 0.0000-0.3165 0.0000 (  3096 PWs)   bands (ev):

   -72.1095 -72.1095 -38.3066 -38.3066 -38.1108 -38.1108 -38.0397 -38.0397
     5.4814   5.4814  11.0205  11.0205  12.1164  12.1164  13.2901  13.2901
    14.0103  14.0103  14.7699  14.7699  14.9221  14.9221  17.6912

          k = 0.0000-0.3165 0.1443 (  3124 PWs)   bands (ev):

   -72.1095 -72.1095 -38.3068 -38.3068 -38.1109 -38.1109 -38.0403 -38.0403
     5.8137   5.8137  10.0176  10.0176  12.2503  12.2503  13.0049  13.0049
    13.9974  13.9974  14.8949  14.8949  14.9310  14.9310  19.3803

          k = 0.0000-0.3165-0.2887 (  3120 PWs)   bands (ev):

   -72.1095 -72.1095 -38.3067 -38.3067 -38.1110 -38.1110 -38.0404 -38.0404
     6.2853   6.2853   9.0352   9.0352  12.3133  12.3133  12.8635  12.8635
    13.9848  13.9848  14.9396  14.9396  14.9687  14.9687  21.6292

          k = 0.1667 0.0000 0.0000 (  3121 PWs)   bands (ev):

   -72.1273 -72.0817 -38.4091 -38.1974 -38.1625 -38.1257 -38.0494 -38.0440
     3.9169  10.0678  10.8656  11.5402  11.6081  12.2595  12.6162  13.3570
    13.5207  13.5325  14.4350  14.8608  15.7284  15.8063  17.0485

          k = 0.1667 0.0000 0.1443 (  3110 PWs)   bands (ev):

   -72.1273 -72.0817 -38.4090 -38.1973 -38.1626 -38.1256 -38.0497 -38.0437
     4.2967   8.6519  10.9185  11.0470  12.2001  12.6375  13.0804  13.3587
    13.4762  13.7641  14.3526  14.4592  15.7899  15.8599  18.3617

          k = 0.1667 0.0000-0.2887 (  3122 PWs)   bands (ev):

   -72.1273 -72.0817 -38.4088 -38.1973 -38.1626 -38.1257 -38.0505 -38.0441
     4.8732   7.4178  10.6108  11.2625  12.5924  12.7808  13.2668  13.3745
    13.4110  14.2097  14.4029  14.4977  14.9090  16.1308  17.4241

          k = 0.1667 0.1582 0.0000 (  3106 PWs)   bands (ev):

   -72.1206 -72.0884 -38.3839 -38.2250 -38.1798 -38.1147 -38.0447 -38.0400
     4.4694   8.4557  11.0376  11.2414  11.9243  12.1283  13.2515  13.2855
    13.5670  13.8236  14.5668  14.6736  15.6635  15.8029  18.4988

          k = 0.1667 0.1582 0.1443 (  3113 PWs)   bands (ev):

   -72.1206 -72.0884 -38.3840 -38.2251 -38.1798 -38.1149 -38.0451 -38.0400
     4.8331   8.5898   9.3733  11.4704  12.1892  12.3826  13.0583  13.2371
    13.5234  14.0741  14.4198  14.6275  15.1003  16.2955  18.6717

          k = 0.1667 0.1582-0.2887 (  3106 PWs)   bands (ev):

   -72.1206 -72.0884 -38.3837 -38.2253 -38.1797 -38.1147 -38.0454 -38.0399
     5.3729   7.9621   9.0716  11.1467  12.6235  12.6301  12.7009  13.2330
    13.4408  14.1323  14.2071  14.6933  14.9574  15.9536  18.4991

          k = 0.1667-0.3165 0.0000 (  3104 PWs)   bands (ev):

   -72.1045 -72.1045 -38.3152 -38.3152 -38.1415 -38.1415 -38.0376 -38.0376
     6.0659   6.0659  11.3942  11.3942  12.3433  12.3433  12.7995  12.7995
    13.9167  13.9167  14.6277  14.6277  15.7897  15.7897  17.8481

          k = 0.1667-0.3165 0.1443 (  3114 PWs)   bands (ev):

   -72.1045 -72.1045 -38.3154 -38.3154 -38.1416 -38.1416 -38.0378 -38.0378
     6.3812   6.3812  10.5030  10.5030  12.4681  12.4681  12.7700  12.7700
    13.8358  13.8358  14.7530  14.7530  15.1462  15.1462  19.8935

          k = 0.1667-0.3165-0.2887 (  3132 PWs)   bands (ev):

   -72.1045 -72.1045 -38.3155 -38.3155 -38.1419 -38.1419 -38.0381 -38.0381
     6.8189   6.8189   9.6149   9.6149  12.5349  12.5349  12.7463  12.7463
    13.7528  13.7528  14.7007  14.7007  15.0658  15.0658  21.3806

          k = 0.3333 0.0000 0.0000 (  3109 PWs)   bands (ev):

   -72.1077 -72.0813 -38.3479 -38.2765 -38.2354 -38.2056 -38.0367 -38.0340
     5.7315  10.5732  11.2851  11.4648  12.0567  12.0760  12.9067  13.1708
    13.7132  13.7258  15.0465  15.5834  16.2245  16.3732  16.3962

          k = 0.3333 0.0000 0.1443 (  3090 PWs)   bands (ev):

   -72.1077 -72.0813 -38.3476 -38.2763 -38.2351 -38.2056 -38.0369 -38.0337
     6.0536   9.9515  11.3427  11.5785  11.7789  12.3235  12.7162  13.2803
    13.5730  14.0245  14.4308  15.0665  15.4869  16.5130  18.2638

          k = 0.3333 0.0000-0.2887 (  3084 PWs)   bands (ev):

   -72.1077 -72.0813 -38.3476 -38.2761 -38.2350 -38.2055 -38.0371 -38.0337
     6.5043   9.1719  11.3589  11.5653  11.8167  12.3491  13.0746  13.0770
    13.3355  14.2414  14.3495  14.7958  15.1025  16.7157  19.2547

          k = 0.3333 0.1582 0.0000 (  3110 PWs)   bands (ev):

   -72.1038 -72.0852 -38.3678 -38.3000 -38.2302 -38.1662 -38.0361 -38.0360
     6.2432   9.7912  11.1961  11.5410  12.0047  12.3699  12.7793  12.8248
    13.6228  13.9874  14.9726  15.1562  16.1627  16.5007  16.7783

          k = 0.3333 0.1582 0.1443 (  3095 PWs)   bands (ev):

   -72.1038 -72.0852 -38.3676 -38.2999 -38.2302 -38.1660 -38.0361 -38.0358
     6.5542   9.8485  10.6996  11.5643  11.9054  12.3311  12.7668  13.0452
    13.8094  13.8819  14.4564  14.9154  15.0722  16.2233  18.4286

          k = 0.3333 0.1582-0.2887 (  3102 PWs)   bands (ev):

   -72.1038 -72.0852 -38.3676 -38.2999 -38.2304 -38.1660 -38.0361 -38.0360
     6.9838   9.4935  10.4997  11.8216  11.9020  12.1702  12.9503  13.0552
    13.0668  13.8564  14.3999  14.7052  15.0165  17.0720  17.1566

          k = 0.3333-0.3165 0.0000 (  3108 PWs)   bands (ev):

   -72.0945 -72.0945 -38.3577 -38.3577 -38.1744 -38.1744 -38.0360 -38.0360
     7.7120   7.7120  11.7655  11.7655  12.1260  12.1260  12.8678  12.8678
    13.7328  13.7328  14.6041  14.6041  16.6158  16.6158  17.6260

          k = 0.3333-0.3165 0.1443 (  3098 PWs)   bands (ev):

   -72.0945 -72.0945 -38.3576 -38.3576 -38.1744 -38.1744 -38.0359 -38.0359
     7.9852   7.9852  11.2429  11.2429  12.3744  12.3744  12.9238  12.9238
    13.7099  13.7099  14.4174  14.4174  15.4425  15.4425  18.0957

          k = 0.3333-0.3165-0.2887 (  3092 PWs)   bands (ev):

   -72.0945 -72.0945 -38.3575 -38.3575 -38.1744 -38.1744 -38.0359 -38.0359
     8.3385   8.3385  10.8459  10.8459  12.3301  12.3301  13.0962  13.0962
    13.1804  13.1804  14.5058  14.5058  15.2951  15.2951  18.0092

          k =-0.5000 0.0000 0.0000 (  3072 PWs)   bands (ev):

   -72.0895 -72.0895 -38.3019 -38.3019 -38.2722 -38.2722 -38.0298 -38.0298
     8.5044   8.5044  11.0698  11.0698  11.9482  11.9482  13.6752  13.6752
    13.7881  13.7881  15.6341  15.6341  17.3464  17.3464  17.9534

          k =-0.5000 0.0000 0.1443 (  3096 PWs)   bands (ev):

   -72.0895 -72.0895 -38.3023 -38.3023 -38.2721 -38.2721 -38.0302 -38.0302
     8.7223   8.7223  11.1248  11.1248  11.8787  11.8787  13.4681  13.4681
    13.8701  13.8701  14.8970  14.8970  16.6316  16.6316  18.0646

          k =-0.5000 0.0000-0.2887 (  3076 PWs)   bands (ev):

   -72.0895 -72.0895 -38.3021 -38.3021 -38.2720 -38.2720 -38.0300 -38.0300
     8.9693   8.9693  11.3175  11.3175  11.8147  11.8147  12.8038  12.8038
    13.9459  13.9459  14.4936  14.4936  16.6015  16.6015  18.1892

          k =-0.5000 0.1582 0.0000 (  3100 PWs)   bands (ev):

   -72.0895 -72.0895 -38.3611 -38.3611 -38.2107 -38.2107 -38.0328 -38.0328
     8.8661   8.8661  11.2912  11.2912  11.9899  11.9899  13.0189  13.0189
    13.4143  13.4143  15.6324  15.6324  16.2021  16.2021  18.1450

          k =-0.5000 0.1582 0.1443 (  3084 PWs)   bands (ev):

   -72.0895 -72.0895 -38.3609 -38.3609 -38.2107 -38.2107 -38.0326 -38.0326
     9.1174   9.1174  11.0031  11.0031  12.3295  12.3295  12.8255  12.8255
    13.8239  13.8239  14.6340  14.6340  15.9540  15.9540  17.8895

          k =-0.5000 0.1582-0.2887 (  3084 PWs)   bands (ev):

   -72.0895 -72.0895 -38.3610 -38.3610 -38.2107 -38.2107 -38.0325 -38.0325
     9.3967   9.3967  10.9769  10.9769  12.3924  12.3924  12.6499  12.6499
    13.5950  13.5950  14.3703  14.3703  16.2629  16.2629  17.1612

          k =-0.5000-0.3165 0.0000 (  3120 PWs)   bands (ev):

   -72.0895 -72.0895 -38.3903 -38.3903 -38.1785 -38.1785 -38.0363 -38.0363
     9.4228   9.4228  11.4512  11.4512  11.7379  11.7379  12.2882  12.2882
    13.6297  13.6297  14.8885  14.8885  15.9364  15.9364  18.8696

          k =-0.5000-0.3165 0.1443 (  3064 PWs)   bands (ev):

   -72.0895 -72.0895 -38.3898 -38.3898 -38.1780 -38.1780 -38.0357 -38.0357
     9.8353   9.8353  10.6336  10.6336  12.1312  12.1312  12.9395  12.9395
    13.7275  13.7275  14.1864  14.1864  15.5469  15.5469  18.3519

          k =-0.5000-0.3165-0.2887 (  3056 PWs)   bands (ev):

   -72.0895 -72.0895 -38.3896 -38.3896 -38.1780 -38.1780 -38.0356 -38.0356
    10.3046  10.3046  10.5876  10.5876  11.5769  11.5769  13.3705  13.3705
    13.4800  13.4800  14.4726  14.4726  15.4496  15.4496  16.7581

     the Fermi energy is    14.6023 ev

!    total energy              =    -737.53650810 Ry
     Harris-Foulkes estimate   =    -737.53650811 Ry
     estimated scf accuracy    <          3.4E-09 Ry

     total all-electron energy =     -6062.415143 Ry

     The total energy is the sum of the following terms:

     one-electron contribution =    -355.61761910 Ry
     hartree contribution      =     199.40661014 Ry
     xc contribution           =     -75.88322699 Ry
     ewald contribution        =    -284.60330432 Ry
     one-center paw contrib.   =    -220.83887729 Ry
     smearing contrib. (-TS)   =      -0.00009054 Ry

     convergence has been achieved in   9 iterations

     Forces acting on atoms (cartesian axes, Ry/au):

     atom    1 type  1   force =     0.00000000    0.00000000   -0.01678383
     atom    2 type  1   force =     0.00000000    0.00000000    0.01678383
     atom    3 type  2   force =     0.00000000    0.00000000   -0.02659889
     atom    4 type  2   force =     0.00000000    0.00000000    0.02659889

     Total force =     0.044479     Total SCF correction =     0.000091


     Computing stress (Cartesian axis) and pressure

          total   stress  (Ry/bohr**3)                   (kbar)     P=       81.79
   0.00131249   0.00000000   0.00000000          193.07        0.00        0.00
   0.00000000   0.00095501   0.00000000            0.00      140.49        0.00
   0.00000000   0.00000000  -0.00059950            0.00        0.00      -88.19


     Writing output data file ./basic.save/

     init_run     :      4.04s CPU      4.56s WALL (       1 calls)
     electrons    :     47.90s CPU     50.37s WALL (       1 calls)
     forces       :      2.00s CPU      2.13s WALL (       1 calls)
     stress       :      4.06s CPU      4.26s WALL (       1 calls)

     Called by init_run:
     wfcinit      :      1.75s CPU      1.88s WALL (       1 calls)
     potinit      :      0.87s CPU      0.93s WALL (       1 calls)
     hinit0       :      1.21s CPU      1.33s WALL (       1 calls)

     Called by electrons:
     c_bands      :     35.58s CPU     36.72s WALL (      10 calls)
     sum_band     :      6.50s CPU      7.12s WALL (      10 calls)
     v_of_rho     :      0.86s CPU      0.92s WALL (      10 calls)
     newd         :      2.01s CPU      2.76s WALL (      10 calls)
     PAW_pot      :      3.36s CPU      3.42s WALL (      10 calls)
     mix_rho      :      0.07s CPU      0.07s WALL (      10 calls)

     Called by c_bands:
     init_us_2    :      0.53s CPU      0.56s WALL (     828 calls)
     cegterg      :     34.48s CPU     35.56s WALL (     360 calls)

     Called by sum_band:
     sum_band:bec :      0.01s CPU      0.01s WALL (     360 calls)
     addusdens    :      2.01s CPU      2.38s WALL (      10 calls)

     Called by *egterg:
     h_psi        :     21.65s CPU     22.54s WALL (    1449 calls)
     s_psi        :      2.86s CPU      2.93s WALL (    1449 calls)
     g_psi        :      0.08s CPU      0.09s WALL (    1053 calls)
     cdiaghg      :      1.71s CPU      1.74s WALL (    1377 calls)

     Called by h_psi:
     h_psi:calbec :      3.47s CPU      3.59s WALL (    1449 calls)
     vloc_psi     :     15.19s CPU     15.90s WALL (    1449 calls)
     add_vuspsi   :      2.85s CPU      2.91s WALL (    1449 calls)

     General routines
     calbec       :      5.24s CPU      5.48s WALL (    1989 calls)
     fft          :      0.33s CPU      0.37s WALL (     154 calls)
     ffts         :      0.01s CPU      0.01s WALL (      20 calls)
     fftw         :     15.74s CPU     16.53s WALL (   55062 calls)
     interpolate  :      0.05s CPU      0.05s WALL (      10 calls)

     Parallel routines
     fft_scatt_xy :      2.33s CPU      2.41s WALL (   55236 calls)
     fft_scatt_yz :      3.01s CPU      3.26s WALL (   55236 calls)

     PWSCF        :     58.95s CPU   1m 2.74s WALL


   This run was terminated on:   0:22:22  13Aug2020            

=------------------------------------------------------------------------------=
   JOB DONE.
=------------------------------------------------------------------------------=
