
     Program PWSCF v.6.5 starts on 12Aug2020 at  1: 6:13 

     This program is part of the open-source Quantum ESPRESSO suite
     for quantum simulation of materials; please cite
         "P. Giannozzi et al., J. Phys.:Condens. Matter 21 395502 (2009);
         "P. Giannozzi et al., J. Phys.:Condens. Matter 29 465901 (2017);
          URL http://www.quantum-espresso.org", 
     in publications or presentations arising from this work. More details at
     http://www.quantum-espresso.org/quote

     Parallel version (MPI), running on     2 processors

     MPI processes distributed on     1 nodes
     R & G space division:  proc/nbgrp/npool/nimage =       2
     Reading input from FeAl15.in

     Current dimensions of program PWSCF are:
     Max number of different atomic species (ntypx) = 10
     Max number of k-points (npk) =  40000
     Max angular momentum in pseudopotentials (lmaxx) =  3

     IMPORTANT: XC functional enforced from input :
     Exchange-correlation= PBE
                           (   1   4   3   4   0   0   0)
     Any further DFT definition will be discarded
     Please, verify this is what you really want

               file Fe.pbe-spn-kjpaw_psl.0.2.1.UPF: wavefunction(s)  3D renormalized
               file Al.pbe-n-kjpaw_psl.0.1.UPF: wavefunction(s)  3S renormalized

     Subspace diagonalization in iterative solution of the eigenvalue problem:
     a serial algorithm will be used

     Message from routine setup:
     using ibrav=0 with symmetry is DISCOURAGED, use correct ibrav instead

     Parallelization info
     --------------------
     sticks:   dense  smooth     PW     G-vecs:    dense   smooth      PW
     Min         863     343    106                36339     9191    1578
     Max         864     344    107                36342     9192    1581
     Sum        1727     687    213                72681    18383    3159



     bravais-lattice index     =            0
     lattice parameter (alat)  =       4.3467  a.u.
     unit-cell volume          =     232.2878 (a.u.)^3
     number of atoms/cell      =            4
     number of atomic types    =            2
     number of electrons       =        38.00
     number of Kohn-Sham states=           23
     kinetic-energy cutoff     =      70.0000  Ry
     charge density cutoff     =     700.0000  Ry
     convergence threshold     =      1.0E-08
     mixing beta               =       0.7000
     number of iterations used =            8  plain     mixing
     Exchange-correlation= PBE
                           (   1   4   3   4   0   0   0)

     celldm(1)=   4.346720  celldm(2)=   0.000000  celldm(3)=   0.000000
     celldm(4)=   0.000000  celldm(5)=   0.000000  celldm(6)=   0.000000

     crystal axes: (cart. coord. in units of alat)
               a(1) = (   1.000000   0.000000   0.000000 )  
               a(2) = (   0.000000   1.632981   0.000000 )  
               a(3) = (   0.000000   0.000000   1.732050 )  

     reciprocal axes: (cart. coord. in units 2 pi/alat)
               b(1) = (  1.000000  0.000000  0.000000 )  
               b(2) = (  0.000000  0.612377  0.000000 )  
               b(3) = (  0.000000  0.000000  0.577351 )  


     PseudoPot. # 1 for Fe read from file:
     ./Fe.pbe-spn-kjpaw_psl.0.2.1.UPF
     MD5 check sum: 4338034a7fd945be4bb7db5fd3b2d142
     Pseudo is Projector augmented-wave + core cor, Zval = 16.0
     Generated using "atomic" code by A. Dal Corso v.5.0.2 svn rev. 9415
     Shape of augmentation charge: PSQ
     Using radial grid of 1191 points,  6 beta functions with: 
                l(1) =   0
                l(2) =   0
                l(3) =   1
                l(4) =   1
                l(5) =   2
                l(6) =   2
     Q(r) pseudized with 0 coefficients 


     PseudoPot. # 2 for Al read from file:
     ./Al.pbe-n-kjpaw_psl.0.1.UPF
     MD5 check sum: 9111391c6252b599ac5002cf021b5091
     Pseudo is Projector augmented-wave + core cor, Zval =  3.0
     Generated using "atomic" code by A. Dal Corso v.5.0.2 svn rev. 9415
     Shape of augmentation charge: PSQ
     Using radial grid of 1135 points,  4 beta functions with: 
                l(1) =   0
                l(2) =   0
                l(3) =   1
                l(4) =   1
     Q(r) pseudized with 0 coefficients 


     atomic species   valence    mass     pseudopotential
        Fe            16.00    55.84500     Fe( 1.00)
        Al             3.00    26.98100     Al( 1.00)

      8 Sym. Ops., with inversion, found ( 6 have fractional translation)



   Cartesian axes

     site n.     atom                  positions (alat units)
         1           Fe  tau(   1) = (   0.7500000   1.2247358   1.5877123  )
         2           Fe  tau(   2) = (   0.2500000   0.4082453   0.1443375  )
         3           Al  tau(   3) = (   0.2500000   1.2247358   0.7216874  )
         4           Al  tau(   4) = (   0.7500000   0.4082453   1.0103624  )

     number of k points=    36  Marzari-Vanderbilt smearing, width (Ry)=  0.0050
                       cart. coord. in units 2pi/alat
        k(    1) = (   0.0000000   0.0000000   0.0000000), wk =   0.0208333
        k(    2) = (   0.0000000   0.0000000   0.1443377), wk =   0.0416667
        k(    3) = (   0.0000000   0.0000000  -0.2886753), wk =   0.0208333
        k(    4) = (   0.0000000   0.1530942   0.0000000), wk =   0.0416667
        k(    5) = (   0.0000000   0.1530942   0.1443377), wk =   0.0833333
        k(    6) = (   0.0000000   0.1530942  -0.2886753), wk =   0.0416667
        k(    7) = (   0.0000000  -0.3061885   0.0000000), wk =   0.0208333
        k(    8) = (   0.0000000  -0.3061885   0.1443377), wk =   0.0416667
        k(    9) = (   0.0000000  -0.3061885  -0.2886753), wk =   0.0208333
        k(   10) = (   0.1666667   0.0000000   0.0000000), wk =   0.0416667
        k(   11) = (   0.1666667   0.0000000   0.1443377), wk =   0.0833333
        k(   12) = (   0.1666667   0.0000000  -0.2886753), wk =   0.0416667
        k(   13) = (   0.1666667   0.1530942   0.0000000), wk =   0.0833333
        k(   14) = (   0.1666667   0.1530942   0.1443377), wk =   0.1666667
        k(   15) = (   0.1666667   0.1530942  -0.2886753), wk =   0.0833333
        k(   16) = (   0.1666667  -0.3061885   0.0000000), wk =   0.0416667
        k(   17) = (   0.1666667  -0.3061885   0.1443377), wk =   0.0833333
        k(   18) = (   0.1666667  -0.3061885  -0.2886753), wk =   0.0416667
        k(   19) = (   0.3333333   0.0000000   0.0000000), wk =   0.0416667
        k(   20) = (   0.3333333   0.0000000   0.1443377), wk =   0.0833333
        k(   21) = (   0.3333333   0.0000000  -0.2886753), wk =   0.0416667
        k(   22) = (   0.3333333   0.1530942   0.0000000), wk =   0.0833333
        k(   23) = (   0.3333333   0.1530942   0.1443377), wk =   0.1666667
        k(   24) = (   0.3333333   0.1530942  -0.2886753), wk =   0.0833333
        k(   25) = (   0.3333333  -0.3061885   0.0000000), wk =   0.0416667
        k(   26) = (   0.3333333  -0.3061885   0.1443377), wk =   0.0833333
        k(   27) = (   0.3333333  -0.3061885  -0.2886753), wk =   0.0416667
        k(   28) = (  -0.5000000   0.0000000   0.0000000), wk =   0.0208333
        k(   29) = (  -0.5000000   0.0000000   0.1443377), wk =   0.0416667
        k(   30) = (  -0.5000000   0.0000000  -0.2886753), wk =   0.0208333
        k(   31) = (  -0.5000000   0.1530942   0.0000000), wk =   0.0416667
        k(   32) = (  -0.5000000   0.1530942   0.1443377), wk =   0.0833333
        k(   33) = (  -0.5000000   0.1530942  -0.2886753), wk =   0.0416667
        k(   34) = (  -0.5000000  -0.3061885   0.0000000), wk =   0.0208333
        k(   35) = (  -0.5000000  -0.3061885   0.1443377), wk =   0.0416667
        k(   36) = (  -0.5000000  -0.3061885  -0.2886753), wk =   0.0208333

     Dense  grid:    72681 G-vectors     FFT dimensions: (  40,  60,  64)

     Smooth grid:    18383 G-vectors     FFT dimensions: (  24,  40,  45)

     Estimated max dynamical RAM per process >     151.50 MB

     Estimated total dynamical RAM >     303.01 MB

     Check: negative core charge=   -0.000013

     Initial potential from superposition of free atoms

     starting charge   37.99454, renormalised to   38.00000
     Starting wfcs are   34 randomized atomic wfcs
     Checking if some PAW data can be deallocated... 

     total cpu time spent up to now is        4.1 secs

     Self-consistent Calculation

     iteration #  1     ecut=    70.00 Ry     beta= 0.70
     Davidson diagonalization with overlap
     ethr =  1.00E-02,  avg # of iterations =  3.1

     Threshold (ethr) on eigenvalues was too large:
     Diagonalizing with lowered threshold

     Davidson diagonalization with overlap
     ethr =  2.14E-04,  avg # of iterations =  4.1

     total cpu time spent up to now is       11.4 secs

     total energy              =    -737.20988729 Ry
     Harris-Foulkes estimate   =    -737.27171243 Ry
     estimated scf accuracy    <       0.09850803 Ry

     iteration #  2     ecut=    70.00 Ry     beta= 0.70
     Davidson diagonalization with overlap
     ethr =  2.59E-04,  avg # of iterations =  2.1

     total cpu time spent up to now is       15.3 secs

     total energy              =    -737.22600886 Ry
     Harris-Foulkes estimate   =    -737.23653323 Ry
     estimated scf accuracy    <       0.01639725 Ry

     iteration #  3     ecut=    70.00 Ry     beta= 0.70
     Davidson diagonalization with overlap
     ethr =  4.32E-05,  avg # of iterations =  3.2

     total cpu time spent up to now is       20.2 secs

     total energy              =    -737.22373371 Ry
     Harris-Foulkes estimate   =    -737.23824354 Ry
     estimated scf accuracy    <       0.05427629 Ry

     iteration #  4     ecut=    70.00 Ry     beta= 0.70
     Davidson diagonalization with overlap
     ethr =  4.32E-05,  avg # of iterations =  2.8

     total cpu time spent up to now is       24.2 secs

     total energy              =    -737.23181289 Ry
     Harris-Foulkes estimate   =    -737.23310391 Ry
     estimated scf accuracy    <       0.00511862 Ry

     iteration #  5     ecut=    70.00 Ry     beta= 0.70
     Davidson diagonalization with overlap
     ethr =  1.35E-05,  avg # of iterations =  1.8

     total cpu time spent up to now is       28.0 secs

     total energy              =    -737.23237692 Ry
     Harris-Foulkes estimate   =    -737.23240139 Ry
     estimated scf accuracy    <       0.00007257 Ry

     iteration #  6     ecut=    70.00 Ry     beta= 0.70
     Davidson diagonalization with overlap
     ethr =  1.91E-07,  avg # of iterations =  4.0

     total cpu time spent up to now is       33.6 secs

     total energy              =    -737.23243099 Ry
     Harris-Foulkes estimate   =    -737.23243639 Ry
     estimated scf accuracy    <       0.00000889 Ry

     iteration #  7     ecut=    70.00 Ry     beta= 0.70
     Davidson diagonalization with overlap
     ethr =  2.34E-08,  avg # of iterations =  2.0

     total cpu time spent up to now is       37.7 secs

     total energy              =    -737.23243230 Ry
     Harris-Foulkes estimate   =    -737.23243247 Ry
     estimated scf accuracy    <       0.00000079 Ry

     iteration #  8     ecut=    70.00 Ry     beta= 0.70
     Davidson diagonalization with overlap
     ethr =  2.07E-09,  avg # of iterations =  4.0

     total cpu time spent up to now is       42.7 secs

     total energy              =    -737.23243253 Ry
     Harris-Foulkes estimate   =    -737.23243261 Ry
     estimated scf accuracy    <       0.00000015 Ry

     iteration #  9     ecut=    70.00 Ry     beta= 0.70
     Davidson diagonalization with overlap
     ethr =  3.87E-10,  avg # of iterations =  2.0

     total cpu time spent up to now is       46.3 secs

     End of self-consistent calculation

          k = 0.0000 0.0000 0.0000 (  2273 PWs)   bands (ev):

   -66.4413 -66.2809 -32.9627 -32.3669 -32.3426 -32.3028 -32.2468 -32.1111
     7.1998  14.3861  15.4301  15.7717  16.0931  16.9016  18.0084  18.7990
    19.1389  19.4067  20.2971  20.5938  21.9678  21.9752  24.1748

          k = 0.0000 0.0000 0.1443 (  2298 PWs)   bands (ev):

   -66.4412 -66.2809 -32.9624 -32.3708 -32.3431 -32.3030 -32.2469 -32.1117
     7.7529  12.9498  15.0340  15.0616  16.7739  17.8494  18.7174  18.7343
    19.1504  19.4200  20.2654  20.6217  21.7733  21.9585  25.2565

          k = 0.0000 0.0000-0.2887 (  2312 PWs)   bands (ev):

   -66.4411 -66.2809 -32.9625 -32.3739 -32.3434 -32.3032 -32.2472 -32.1121
     8.6644  11.2728  14.5623  15.2944  17.5565  17.7827  18.4254  19.1619
    19.3481  20.2379  20.6455  20.7788  21.0412  21.9491  22.5150

          k = 0.0000 0.1531 0.0000 (  2305 PWs)   bands (ev):

   -66.4180 -66.3046 -32.8823 -32.4586 -32.3411 -32.2755 -32.2412 -32.1402
     7.8619  12.4197  15.5013  15.7183  16.3357  17.1595  18.5548  19.1913
    19.3263  19.5805  20.3676  20.5225  21.6759  21.6964  25.9121

          k = 0.0000 0.1531 0.1443 (  2300 PWs)   bands (ev):

   -66.4179 -66.3046 -32.8825 -32.4594 -32.3436 -32.2753 -32.2409 -32.1401
     8.3840  12.6638  13.6143  15.5805  17.0921  17.1366  18.4459  19.0175
    19.3264  19.8221  20.3738  20.5117  21.6866  21.7634  25.5552

          k = 0.0000 0.1531-0.2887 (  2296 PWs)   bands (ev):

   -66.4178 -66.3045 -32.8824 -32.4604 -32.3458 -32.2754 -32.2405 -32.1401
     9.2095  11.9810  13.0590  15.2449  17.2854  17.4905  18.3272  18.6222
    19.3265  20.3797  20.5016  20.5742  20.8770  21.6969  25.0011

          k = 0.0000-0.3062 0.0000 (  2338 PWs)   bands (ev):

   -66.3615 -66.3615 -32.6809 -32.6809 -32.2832 -32.2832 -32.2085 -32.2085
     9.7322   9.7322  15.5553  15.5553  17.1164  17.1164  18.8536  18.8536
    19.8256  19.8256  20.7258  20.7258  21.0705  21.0705  25.0394

          k = 0.0000-0.3062 0.1443 (  2292 PWs)   bands (ev):

   -66.3614 -66.3614 -32.6812 -32.6812 -32.2832 -32.2832 -32.2081 -32.2081
    10.1632  10.1632  14.8152  14.8152  17.1562  17.1562  18.2020  18.2020
    19.8143  19.8143  20.9297  20.9297  21.0883  21.0883  26.6736

          k = 0.0000-0.3062-0.2887 (  2284 PWs)   bands (ev):

   -66.3613 -66.3613 -32.6819 -32.6819 -32.2839 -32.2839 -32.2079 -32.2079
    10.7742  10.7742  13.8629  13.8629  17.2016  17.2016  17.8211  17.8211
    19.8033  19.8033  21.0641  21.0641  21.1057  21.1057  28.6142

          k = 0.1667 0.0000 0.0000 (  2287 PWs)   bands (ev):

   -66.4108 -66.2716 -32.8996 -32.4543 -32.3544 -32.3296 -32.2794 -32.2437
     7.9841  14.7243  15.8893  16.3665  16.4750  16.9428  17.8514  18.7264
    18.8712  19.0151  20.2029  21.0678  22.3496  22.4110  24.0546

          k = 0.1667 0.0000 0.1443 (  2299 PWs)   bands (ev):

   -66.4107 -66.2716 -32.8997 -32.4549 -32.3551 -32.3316 -32.2794 -32.2433
     8.5022  13.5472  15.4059  15.7229  17.0590  17.7656  18.2868  18.7795
    18.8200  19.2763  20.1295  20.3355  22.1266  22.4099  25.9228

          k = 0.1667 0.0000-0.2887 (  2312 PWs)   bands (ev):

   -66.4106 -66.2716 -32.8997 -32.4556 -32.3552 -32.3338 -32.2796 -32.2434
     9.3194  12.0960  14.9565  15.8955  17.6590  17.7988  18.5324  18.7524
    18.8655  19.9572  20.2446  20.2488  20.8849  22.7241  24.1094

          k = 0.1667 0.1531 0.0000 (  2299 PWs)   bands (ev):

   -66.3905 -66.2921 -32.8451 -32.4928 -32.4195 -32.3027 -32.2811 -32.2227
     8.6224  13.0403  15.9759  16.1214  16.6434  17.0460  18.5306  18.6920
    18.9692  19.2670  20.5918  20.6228  22.2690  22.4531  25.4520

          k = 0.1667 0.1531 0.1443 (  2294 PWs)   bands (ev):

   -66.3904 -66.2921 -32.8449 -32.4932 -32.4201 -32.3038 -32.2809 -32.2227
     9.1115  13.2231  14.2794  16.2230  17.0726  17.2916  18.3220  18.5192
    18.9266  19.6886  20.2863  20.5807  21.3232  22.8803  25.6081

          k = 0.1667 0.1531-0.2887 (  2288 PWs)   bands (ev):

   -66.3903 -66.2920 -32.8450 -32.4935 -32.4206 -32.3049 -32.2806 -32.2228
     9.8563  12.7310  13.6302  15.9741  17.6172  17.6449  17.7647  18.5129
    18.8361  19.8178  19.9723  20.6438  21.0555  22.5326  25.0901

          k = 0.1667-0.3062 0.0000 (  2284 PWs)   bands (ev):

   -66.3414 -66.3414 -32.6924 -32.6924 -32.3449 -32.3449 -32.2451 -32.2451
    10.4344  10.4344  16.0724  16.0724  17.4633  17.4633  17.9936  17.9936
    19.5438  19.5438  20.5734  20.5734  22.3638  22.3638  25.1232

          k = 0.1667-0.3062 0.1443 (  2296 PWs)   bands (ev):

   -66.3414 -66.3414 -32.6929 -32.6929 -32.3456 -32.3456 -32.2454 -32.2454
    10.8356  10.8356  15.4154  15.4154  17.4867  17.4867  17.8323  17.8323
    19.4237  19.4237  20.7725  20.7725  21.4103  21.4103  27.3148

          k = 0.1667-0.3062-0.2887 (  2296 PWs)   bands (ev):

   -66.3413 -66.3413 -32.6932 -32.6932 -32.3461 -32.3461 -32.2456 -32.2456
    11.3870  11.3870  14.5793  14.5793  17.4990  17.4990  17.7309  17.7309
    19.3013  19.3013  20.6769  20.6769  21.2845  21.2845  28.7750

          k = 0.3333 0.0000 0.0000 (  2320 PWs)   bands (ev):

   -66.3415 -66.2608 -32.7391 -32.7026 -32.6141 -32.3800 -32.2948 -32.2770
    10.2001  15.0855  16.0473  16.5800  16.7221  16.7950  18.1790  18.5457
    19.1859  19.2024  21.2295  22.2394  22.9690  23.0567  23.3048

          k = 0.3333 0.0000 0.1443 (  2296 PWs)   bands (ev):

   -66.3415 -66.2608 -32.7386 -32.7022 -32.6137 -32.3795 -32.2954 -32.2764
    10.6063  14.8035  16.0413  16.0874  16.9144  17.1025  17.9019  18.6511
    19.0240  19.6560  20.3433  21.2357  21.8688  23.1106  26.0130

          k = 0.3333 0.0000-0.2887 (  2302 PWs)   bands (ev):

   -66.3414 -66.2608 -32.7383 -32.7025 -32.6135 -32.3795 -32.2965 -32.2762
    11.1641  14.2097  15.7783  16.3581  16.7380  17.1334  18.3018  18.4476
    18.7028  19.9246  20.1298  20.7150  21.3369  23.3565  27.1964

          k = 0.3333 0.1531 0.0000 (  2275 PWs)   bands (ev):

   -66.3296 -66.2725 -32.8378 -32.7154 -32.5457 -32.3415 -32.2825 -32.2800
    10.7513  14.4469  15.8029  16.2546  17.2716  17.2947  17.9012  17.9127
    19.1505  19.6492  21.1337  21.3911  23.1328  23.3840  23.7232

          k = 0.3333 0.1531 0.1443 (  2302 PWs)   bands (ev):

   -66.3296 -66.2726 -32.8376 -32.7153 -32.5463 -32.3420 -32.2836 -32.2803
    11.1418  14.5238  15.5424  16.2766  16.8124  17.3392  17.9640  18.2398
    19.4337  19.5543  20.3247  21.0328  21.3063  23.0649  25.6718

          k = 0.3333 0.1531-0.2887 (  2306 PWs)   bands (ev):

   -66.3296 -66.2726 -32.8373 -32.7149 -32.5467 -32.3420 -32.2844 -32.2802
    11.6721  14.2979  15.3397  16.4662  16.8015  17.2539  18.2343  18.3478
    18.3647  19.3549  20.2344  20.6904  21.1999  24.0386  24.2361

          k = 0.3333-0.3062 0.0000 (  2288 PWs)   bands (ev):

   -66.3011 -66.3011 -32.8324 -32.8324 -32.4025 -32.4025 -32.2664 -32.2664
    12.3169  12.3169  16.4790  16.4790  16.9765  16.9765  18.2376  18.2376
    19.3259  19.3259  20.6341  20.6341  23.5706  23.5706  24.5697

          k = 0.3333-0.3062 0.1443 (  2290 PWs)   bands (ev):

   -66.3011 -66.3011 -32.8320 -32.8320 -32.4029 -32.4029 -32.2666 -32.2666
    12.6511  12.6511  15.9412  15.9412  17.3130  17.3130  18.2875  18.2875
    19.3341  19.3341  20.3336  20.3336  21.8749  21.8749  25.6056

          k = 0.3333-0.3062-0.2887 (  2312 PWs)   bands (ev):

   -66.3011 -66.3011 -32.8317 -32.8317 -32.4036 -32.4036 -32.2672 -32.2672
    13.0639  13.0639  15.6277  15.6277  17.4676  17.4676  18.2739  18.2739
    18.6018  18.6018  20.4066  20.4066  21.6775  21.6775  25.4858

          k =-0.5000 0.0000 0.0000 (  2280 PWs)   bands (ev):

   -66.2810 -66.2810 -32.7972 -32.7972 -32.5438 -32.5438 -32.2699 -32.2699
    13.3923  13.3923  15.6318  15.6318  16.5268  16.5268  19.1467  19.1467
    19.3529  19.3529  22.4017  22.4017  24.0710  24.0710  24.4963

          k =-0.5000 0.0000 0.1443 (  2304 PWs)   bands (ev):

   -66.2810 -66.2810 -32.7973 -32.7973 -32.5438 -32.5438 -32.2703 -32.2703
    13.5934  13.5934  15.8656  15.8656  16.4217  16.4217  18.9416  18.9416
    19.4485  19.4485  21.0381  21.0381  23.6913  23.6913  24.6717

          k =-0.5000 0.0000-0.2887 (  2288 PWs)   bands (ev):

   -66.2810 -66.2810 -32.7967 -32.7967 -32.5437 -32.5437 -32.2700 -32.2700
    13.7672  13.7672  16.3241  16.3241  16.5617  16.5617  17.9622  17.9622
    19.5351  19.5351  20.2903  20.2903  23.7648  23.7648  24.8646

          k =-0.5000 0.1531 0.0000 (  2294 PWs)   bands (ev):

   -66.2809 -66.2809 -32.8854 -32.8854 -32.4493 -32.4493 -32.2753 -32.2753
    13.6364  13.6364  15.7711  15.7711  17.0369  17.0369  18.3560  18.3560
    18.8870  18.8870  22.2488  22.2488  22.9023  22.9023  25.0182

          k =-0.5000 0.1531 0.1443 (  2308 PWs)   bands (ev):

   -66.2809 -66.2809 -32.8850 -32.8850 -32.4495 -32.4495 -32.2757 -32.2757
    13.9415  13.9415  15.4816  15.4816  17.3265  17.3265  18.1364  18.1364
    19.5291  19.5291  20.6309  20.6309  22.7134  22.7134  25.2232

          k =-0.5000 0.1531-0.2887 (  2328 PWs)   bands (ev):

   -66.2810 -66.2810 -32.8846 -32.8846 -32.4498 -32.4498 -32.2762 -32.2762
    14.1923  14.1923  15.5464  15.5464  17.6378  17.6378  17.8508  17.8508
    19.0461  19.0461  20.2417  20.2417  23.1447  23.1447  24.4021

          k =-0.5000-0.3062 0.0000 (  2296 PWs)   bands (ev):

   -66.2808 -66.2808 -32.9461 -32.9461 -32.3758 -32.3758 -32.2868 -32.2868
    13.9346  13.9346  16.2807  16.2807  17.1419  17.1419  17.3106  17.3106
    19.1540  19.1540  21.0470  21.0470  22.7613  22.7613  25.7355

          k =-0.5000-0.3062 0.1443 (  2292 PWs)   bands (ev):

   -66.2809 -66.2809 -32.9452 -32.9452 -32.3758 -32.3758 -32.2872 -32.2872
    14.4324  14.4324  15.3598  15.3598  17.0745  17.0745  18.5359  18.5359
    19.4515  19.4515  19.9774  19.9774  22.1011  22.1011  26.0002

          k =-0.5000-0.3062-0.2887 (  2312 PWs)   bands (ev):

   -66.2809 -66.2809 -32.9449 -32.9449 -32.3761 -32.3761 -32.2876 -32.2876
    14.9037  14.9037  15.2360  15.2360  16.7977  16.7977  18.7630  18.7630
    18.7930  18.7930  20.6488  20.6488  21.9453  21.9453  24.1649

     the Fermi energy is    20.5920 ev

!    total energy              =    -737.23243254 Ry
     Harris-Foulkes estimate   =    -737.23243255 Ry
     estimated scf accuracy    <          5.4E-09 Ry

     total all-electron energy =     -6062.111067 Ry

     The total energy is the sum of the following terms:

     one-electron contribution =    -306.37908520 Ry
     hartree contribution      =     183.01284617 Ry
     xc contribution           =     -76.91576304 Ry
     ewald contribution        =    -315.96915568 Ry
     one-center paw contrib.   =    -220.98083592 Ry
     smearing contrib. (-TS)   =      -0.00043886 Ry

     convergence has been achieved in   9 iterations

     Forces acting on atoms (cartesian axes, Ry/au):

     atom    1 type  1   force =     0.00000000    0.00000000   -0.03090887
     atom    2 type  1   force =     0.00000000    0.00000000    0.03090887
     atom    3 type  2   force =     0.00000000    0.00000000   -0.02737583
     atom    4 type  2   force =     0.00000000    0.00000000    0.02737583

     Total force =     0.058392     Total SCF correction =     0.000081


     Computing stress (Cartesian axis) and pressure

          total   stress  (Ry/bohr**3)                   (kbar)     P=     1245.39
   0.01037460   0.00000000   0.00000000         1526.16        0.00        0.00
   0.00000000   0.00852495   0.00000000            0.00     1254.06        0.00
   0.00000000   0.00000000   0.00649849            0.00        0.00      955.96


     Writing output data file ./basic.save/

     init_run     :      3.11s CPU      3.23s WALL (       1 calls)
     electrons    :     40.13s CPU     42.16s WALL (       1 calls)
     forces       :      1.39s CPU      1.45s WALL (       1 calls)
     stress       :      3.16s CPU      3.27s WALL (       1 calls)

     Called by init_run:
     wfcinit      :      1.22s CPU      1.26s WALL (       1 calls)
     potinit      :      0.71s CPU      0.74s WALL (       1 calls)
     hinit0       :      0.99s CPU      1.01s WALL (       1 calls)

     Called by electrons:
     c_bands      :     29.45s CPU     30.64s WALL (      10 calls)
     sum_band     :      5.37s CPU      5.83s WALL (      10 calls)
     v_of_rho     :      0.57s CPU      0.60s WALL (      10 calls)
     newd         :      1.57s CPU      1.87s WALL (      10 calls)
     PAW_pot      :      3.59s CPU      3.68s WALL (      10 calls)
     mix_rho      :      0.05s CPU      0.05s WALL (      10 calls)

     Called by c_bands:
     init_us_2    :      0.43s CPU      0.44s WALL (     828 calls)
     cegterg      :     28.54s CPU     29.69s WALL (     360 calls)

     Called by sum_band:
     sum_band:bec :      0.01s CPU      0.02s WALL (     360 calls)
     addusdens    :      1.63s CPU      1.94s WALL (      10 calls)

     Called by *egterg:
     h_psi        :     17.83s CPU     18.68s WALL (    1439 calls)
     s_psi        :      2.30s CPU      2.37s WALL (    1439 calls)
     g_psi        :      0.07s CPU      0.07s WALL (    1043 calls)
     cdiaghg      :      1.73s CPU      1.77s WALL (    1367 calls)

     Called by h_psi:
     h_psi:calbec :      2.75s CPU      2.86s WALL (    1439 calls)
     vloc_psi     :     12.69s CPU     13.35s WALL (    1439 calls)
     add_vuspsi   :      2.28s CPU      2.36s WALL (    1439 calls)

     General routines
     calbec       :      4.14s CPU      4.30s WALL (    1979 calls)
     fft          :      0.22s CPU      0.23s WALL (     154 calls)
     ffts         :      0.01s CPU      0.01s WALL (      20 calls)
     fftw         :     13.32s CPU     14.01s WALL (   55020 calls)
     interpolate  :      0.02s CPU      0.02s WALL (      10 calls)

     Parallel routines
     fft_scatt_xy :      1.75s CPU      1.83s WALL (   55194 calls)
     fft_scatt_yz :      2.70s CPU      2.91s WALL (   55194 calls)

     PWSCF        :     48.68s CPU     51.13s WALL


   This run was terminated on:   1: 7: 4  12Aug2020            

=------------------------------------------------------------------------------=
   JOB DONE.
=------------------------------------------------------------------------------=
