
     Program PWSCF v.6.5 starts on 13Aug2020 at  0:22:23 

     This program is part of the open-source Quantum ESPRESSO suite
     for quantum simulation of materials; please cite
         "P. Giannozzi et al., J. Phys.:Condens. Matter 21 395502 (2009);
         "P. Giannozzi et al., J. Phys.:Condens. Matter 29 465901 (2017);
          URL http://www.quantum-espresso.org", 
     in publications or presentations arising from this work. More details at
     http://www.quantum-espresso.org/quote

     Parallel version (MPI), running on     2 processors

     MPI processes distributed on     1 nodes
     R & G space division:  proc/nbgrp/npool/nimage =       2
     Reading input from FeAlb162.in

     Current dimensions of program PWSCF are:
     Max number of different atomic species (ntypx) = 10
     Max number of k-points (npk) =  40000
     Max angular momentum in pseudopotentials (lmaxx) =  3

     IMPORTANT: XC functional enforced from input :
     Exchange-correlation= PBE
                           (   1   4   3   4   0   0   0)
     Any further DFT definition will be discarded
     Please, verify this is what you really want

               file Fe.pbe-spn-kjpaw_psl.0.2.1.UPF: wavefunction(s)  3D renormalized
               file Al.pbe-n-kjpaw_psl.0.1.UPF: wavefunction(s)  3S renormalized

     Subspace diagonalization in iterative solution of the eigenvalue problem:
     a serial algorithm will be used

     Message from routine setup:
     using ibrav=0 with symmetry is DISCOURAGED, use correct ibrav instead

     Parallelization info
     --------------------
     sticks:   dense  smooth     PW     G-vecs:    dense   smooth      PW
     Min        1063     422    132                50277    12704    2124
     Max        1064     423    133                50280    12705    2125
     Sum        2127     845    265               100557    25409    4249



     bravais-lattice index     =            0
     lattice parameter (alat)  =       4.8581  a.u.
     unit-cell volume          =     321.7172 (a.u.)^3
     number of atoms/cell      =            4
     number of atomic types    =            2
     number of electrons       =        38.00
     number of Kohn-Sham states=           23
     kinetic-energy cutoff     =      70.0000  Ry
     charge density cutoff     =     700.0000  Ry
     convergence threshold     =      1.0E-08
     mixing beta               =       0.7000
     number of iterations used =            8  plain     mixing
     Exchange-correlation= PBE
                           (   1   4   3   4   0   0   0)

     celldm(1)=   4.858098  celldm(2)=   0.000000  celldm(3)=   0.000000
     celldm(4)=   0.000000  celldm(5)=   0.000000  celldm(6)=   0.000000

     crystal axes: (cart. coord. in units of alat)
               a(1) = (   1.000000   0.000000   0.000000 )  
               a(2) = (   0.000000   1.620000   0.000000 )  
               a(3) = (   0.000000   0.000000   1.732050 )  

     reciprocal axes: (cart. coord. in units 2 pi/alat)
               b(1) = (  1.000000  0.000000  0.000000 )  
               b(2) = (  0.000000  0.617284  0.000000 )  
               b(3) = (  0.000000  0.000000  0.577351 )  


     PseudoPot. # 1 for Fe read from file:
     ./Fe.pbe-spn-kjpaw_psl.0.2.1.UPF
     MD5 check sum: 4338034a7fd945be4bb7db5fd3b2d142
     Pseudo is Projector augmented-wave + core cor, Zval = 16.0
     Generated using "atomic" code by A. Dal Corso v.5.0.2 svn rev. 9415
     Shape of augmentation charge: PSQ
     Using radial grid of 1191 points,  6 beta functions with: 
                l(1) =   0
                l(2) =   0
                l(3) =   1
                l(4) =   1
                l(5) =   2
                l(6) =   2
     Q(r) pseudized with 0 coefficients 


     PseudoPot. # 2 for Al read from file:
     ./Al.pbe-n-kjpaw_psl.0.1.UPF
     MD5 check sum: 9111391c6252b599ac5002cf021b5091
     Pseudo is Projector augmented-wave + core cor, Zval =  3.0
     Generated using "atomic" code by A. Dal Corso v.5.0.2 svn rev. 9415
     Shape of augmentation charge: PSQ
     Using radial grid of 1135 points,  4 beta functions with: 
                l(1) =   0
                l(2) =   0
                l(3) =   1
                l(4) =   1
     Q(r) pseudized with 0 coefficients 


     atomic species   valence    mass     pseudopotential
        Fe            16.00    55.84500     Fe( 1.00)
        Al             3.00    26.98100     Al( 1.00)

      8 Sym. Ops., with inversion, found ( 6 have fractional translation)



   Cartesian axes

     site n.     atom                  positions (alat units)
         1           Fe  tau(   1) = (   0.7500000   1.2150000   1.5877123  )
         2           Fe  tau(   2) = (   0.2500000   0.4050000   0.1443375  )
         3           Al  tau(   3) = (   0.2500000   1.2150000   0.7216874  )
         4           Al  tau(   4) = (   0.7500000   0.4050000   1.0103624  )

     number of k points=    36  Marzari-Vanderbilt smearing, width (Ry)=  0.0050
                       cart. coord. in units 2pi/alat
        k(    1) = (   0.0000000   0.0000000   0.0000000), wk =   0.0208333
        k(    2) = (   0.0000000   0.0000000   0.1443377), wk =   0.0416667
        k(    3) = (   0.0000000   0.0000000  -0.2886753), wk =   0.0208333
        k(    4) = (   0.0000000   0.1543210   0.0000000), wk =   0.0416667
        k(    5) = (   0.0000000   0.1543210   0.1443377), wk =   0.0833333
        k(    6) = (   0.0000000   0.1543210  -0.2886753), wk =   0.0416667
        k(    7) = (   0.0000000  -0.3086420   0.0000000), wk =   0.0208333
        k(    8) = (   0.0000000  -0.3086420   0.1443377), wk =   0.0416667
        k(    9) = (   0.0000000  -0.3086420  -0.2886753), wk =   0.0208333
        k(   10) = (   0.1666667   0.0000000   0.0000000), wk =   0.0416667
        k(   11) = (   0.1666667   0.0000000   0.1443377), wk =   0.0833333
        k(   12) = (   0.1666667   0.0000000  -0.2886753), wk =   0.0416667
        k(   13) = (   0.1666667   0.1543210   0.0000000), wk =   0.0833333
        k(   14) = (   0.1666667   0.1543210   0.1443377), wk =   0.1666667
        k(   15) = (   0.1666667   0.1543210  -0.2886753), wk =   0.0833333
        k(   16) = (   0.1666667  -0.3086420   0.0000000), wk =   0.0416667
        k(   17) = (   0.1666667  -0.3086420   0.1443377), wk =   0.0833333
        k(   18) = (   0.1666667  -0.3086420  -0.2886753), wk =   0.0416667
        k(   19) = (   0.3333333   0.0000000   0.0000000), wk =   0.0416667
        k(   20) = (   0.3333333   0.0000000   0.1443377), wk =   0.0833333
        k(   21) = (   0.3333333   0.0000000  -0.2886753), wk =   0.0416667
        k(   22) = (   0.3333333   0.1543210   0.0000000), wk =   0.0833333
        k(   23) = (   0.3333333   0.1543210   0.1443377), wk =   0.1666667
        k(   24) = (   0.3333333   0.1543210  -0.2886753), wk =   0.0833333
        k(   25) = (   0.3333333  -0.3086420   0.0000000), wk =   0.0416667
        k(   26) = (   0.3333333  -0.3086420   0.1443377), wk =   0.0833333
        k(   27) = (   0.3333333  -0.3086420  -0.2886753), wk =   0.0416667
        k(   28) = (  -0.5000000   0.0000000   0.0000000), wk =   0.0208333
        k(   29) = (  -0.5000000   0.0000000   0.1443377), wk =   0.0416667
        k(   30) = (  -0.5000000   0.0000000  -0.2886753), wk =   0.0208333
        k(   31) = (  -0.5000000   0.1543210   0.0000000), wk =   0.0416667
        k(   32) = (  -0.5000000   0.1543210   0.1443377), wk =   0.0833333
        k(   33) = (  -0.5000000   0.1543210  -0.2886753), wk =   0.0416667
        k(   34) = (  -0.5000000  -0.3086420   0.0000000), wk =   0.0208333
        k(   35) = (  -0.5000000  -0.3086420   0.1443377), wk =   0.0416667
        k(   36) = (  -0.5000000  -0.3086420  -0.2886753), wk =   0.0208333

     Dense  grid:   100557 G-vectors     FFT dimensions: (  48,  72,  72)

     Smooth grid:    25409 G-vectors     FFT dimensions: (  30,  48,  45)

     Estimated max dynamical RAM per process >     210.10 MB

     Estimated total dynamical RAM >     420.20 MB

     Check: negative core charge=   -0.000013

     Initial potential from superposition of free atoms

     starting charge   37.99454, renormalised to   38.00000
     Starting wfcs are   34 randomized atomic wfcs
     Checking if some PAW data can be deallocated... 

     total cpu time spent up to now is        6.3 secs

     Self-consistent Calculation

     iteration #  1     ecut=    70.00 Ry     beta= 0.70
     Davidson diagonalization with overlap
     ethr =  1.00E-02,  avg # of iterations =  3.0

     Threshold (ethr) on eigenvalues was too large:
     Diagonalizing with lowered threshold

     Davidson diagonalization with overlap
     ethr =  3.62E-04,  avg # of iterations =  3.8

     total cpu time spent up to now is       15.4 secs

     total energy              =    -737.47264388 Ry
     Harris-Foulkes estimate   =    -737.58081936 Ry
     estimated scf accuracy    <       0.14845702 Ry

     iteration #  2     ecut=    70.00 Ry     beta= 0.70
     Davidson diagonalization with overlap
     ethr =  3.91E-04,  avg # of iterations =  3.6

     total cpu time spent up to now is       21.1 secs

     total energy              =    -737.32801591 Ry
     Harris-Foulkes estimate   =    -737.71804770 Ry
     estimated scf accuracy    <       1.60691181 Ry

     iteration #  3     ecut=    70.00 Ry     beta= 0.70
     Davidson diagonalization with overlap
     ethr =  3.91E-04,  avg # of iterations =  3.3

     total cpu time spent up to now is       26.7 secs

     total energy              =    -737.52998051 Ry
     Harris-Foulkes estimate   =    -737.55438601 Ry
     estimated scf accuracy    <       0.10323689 Ry

     iteration #  4     ecut=    70.00 Ry     beta= 0.70
     Davidson diagonalization with overlap
     ethr =  2.72E-04,  avg # of iterations =  2.0

     total cpu time spent up to now is       35.9 secs

     total energy              =    -737.54156396 Ry
     Harris-Foulkes estimate   =    -737.54197951 Ry
     estimated scf accuracy    <       0.00092586 Ry

     iteration #  5     ecut=    70.00 Ry     beta= 0.70
     Davidson diagonalization with overlap
     ethr =  2.44E-06,  avg # of iterations =  3.7

     total cpu time spent up to now is       43.4 secs

     total energy              =    -737.54224198 Ry
     Harris-Foulkes estimate   =    -737.54228100 Ry
     estimated scf accuracy    <       0.00017516 Ry

     iteration #  6     ecut=    70.00 Ry     beta= 0.70
     Davidson diagonalization with overlap
     ethr =  4.61E-07,  avg # of iterations =  1.2

     total cpu time spent up to now is       48.7 secs

     total energy              =    -737.54225478 Ry
     Harris-Foulkes estimate   =    -737.54225596 Ry
     estimated scf accuracy    <       0.00000339 Ry

     iteration #  7     ecut=    70.00 Ry     beta= 0.70
     Davidson diagonalization with overlap
     ethr =  8.91E-09,  avg # of iterations =  3.4

     total cpu time spent up to now is       56.0 secs

     total energy              =    -737.54225644 Ry
     Harris-Foulkes estimate   =    -737.54225682 Ry
     estimated scf accuracy    <       0.00000116 Ry

     iteration #  8     ecut=    70.00 Ry     beta= 0.70
     Davidson diagonalization with overlap
     ethr =  3.05E-09,  avg # of iterations =  2.2

     total cpu time spent up to now is       63.7 secs

     total energy              =    -737.54225658 Ry
     Harris-Foulkes estimate   =    -737.54225661 Ry
     estimated scf accuracy    <       0.00000008 Ry

     iteration #  9     ecut=    70.00 Ry     beta= 0.70
     Davidson diagonalization with overlap
     ethr =  2.04E-10,  avg # of iterations =  3.6

     total cpu time spent up to now is       69.9 secs

     End of self-consistent calculation

          k = 0.0000 0.0000 0.0000 (  3207 PWs)   bands (ev):

   -72.5453 -72.5027 -38.8211 -38.5761 -38.5687 -38.4994 -38.4627 -38.4587
     3.0408   9.3902  10.1803  10.6365  10.8236  11.9068  12.2440  13.0355
    13.2205  13.3944  14.0120  14.1824  15.0082  15.0238  16.4368

          k = 0.0000 0.0000 0.1443 (  3174 PWs)   bands (ev):

   -72.5453 -72.5027 -38.8207 -38.5760 -38.5686 -38.4989 -38.4625 -38.4586
     3.4414   7.8353  10.1123  10.2164  11.6568  12.2718  12.9507  13.0132
    13.2268  13.3971  13.9784  14.1955  14.8757  15.0036  17.5299

          k = 0.0000 0.0000-0.2887 (  3214 PWs)   bands (ev):

   -72.5453 -72.5027 -38.8208 -38.5760 -38.5691 -38.4994 -38.4634 -38.4592
     4.0713   6.4832   9.8151  10.5477  12.2409  12.2548  12.6163  13.2331
    13.3718  13.9486  14.1471  14.2049  14.7896  14.9990  15.4772

          k = 0.0000 0.1543 0.0000 (  3177 PWs)   bands (ev):

   -72.5391 -72.5089 -38.7894 -38.6202 -38.5585 -38.5093 -38.4576 -38.4507
     3.5768   7.4790  10.4810  10.5487  11.2843  11.8081  12.8760  13.3093
    13.3434  13.4073  14.0356  14.1476  14.8304  14.8621  18.0680

          k = 0.0000 0.1543 0.1443 (  3190 PWs)   bands (ev):

   -72.5391 -72.5090 -38.7894 -38.6205 -38.5586 -38.5094 -38.4580 -38.4510
     3.9619   7.6773   8.4898  10.6913  11.7988  11.9444  12.8158  13.0690
    13.3409  13.7473  14.0336  14.1309  14.8380  14.9279  17.9472

          k = 0.0000 0.1543-0.2887 (  3192 PWs)   bands (ev):

   -72.5391 -72.5089 -38.7892 -38.6208 -38.5585 -38.5093 -38.4585 -38.4511
     4.5528   7.0300   8.1601  10.2417  12.0627  12.1454  12.7308  12.8039
    13.3382  14.0316  14.1153  14.2392  14.3193  14.8451  17.6485

          k = 0.0000-0.3086 0.0000 (  3164 PWs)   bands (ev):

   -72.5240 -72.5240 -38.7095 -38.7095 -38.5340 -38.5340 -38.4494 -38.4494
     5.1284   5.1284  10.7138  10.7138  11.7480  11.7480  12.8590  12.8590
    13.6753  13.6753  14.2811  14.2811  14.4716  14.4716  17.2481

          k = 0.0000-0.3086 0.1443 (  3180 PWs)   bands (ev):

   -72.5240 -72.5240 -38.7096 -38.7096 -38.5341 -38.5341 -38.4499 -38.4499
     5.4676   5.4676   9.6603   9.6603  11.9117  11.9117  12.5731  12.5731
    13.6630  13.6630  14.4077  14.4077  14.4797  14.4797  18.9549

          k = 0.0000-0.3086-0.2887 (  3204 PWs)   bands (ev):

   -72.5240 -72.5240 -38.7098 -38.7098 -38.5341 -38.5341 -38.4504 -38.4504
     5.9549   5.9549   8.6434   8.6434  11.9936  11.9936  12.4230  12.4230
    13.6508  13.6508  14.4829  14.4829  14.4875  14.4875  21.1939

          k = 0.1667 0.0000 0.0000 (  3203 PWs)   bands (ev):

   -72.5375 -72.5006 -38.7999 -38.6124 -38.5882 -38.5534 -38.4557 -38.4516
     3.6674   9.7119  10.5839  11.0053  11.2847  11.9330  12.1914  12.9697
    13.0920  13.1664  13.9573  14.4725  15.2768  15.3063  16.4980

          k = 0.1667 0.0000 0.1443 (  3184 PWs)   bands (ev):

   -72.5375 -72.5006 -38.7998 -38.6121 -38.5878 -38.5532 -38.4561 -38.4513
     4.0497   8.3677  10.4752  10.6868  11.8783  12.2174  12.6588  13.0005
    13.0427  13.3702  13.9053  14.0093  15.2332  15.3367  17.9407

          k = 0.1667 0.0000-0.2887 (  3202 PWs)   bands (ev):

   -72.5375 -72.5006 -38.7998 -38.6120 -38.5880 -38.5534 -38.4565 -38.4518
     4.6345   7.1295  10.1882  10.9476  12.1911  12.4300  12.8347  12.9722
    13.0458  13.7560  13.9675  14.0381  14.2824  15.6495  16.8017

          k = 0.1667 0.1543 0.0000 (  3175 PWs)   bands (ev):

   -72.5321 -72.5060 -38.7773 -38.6385 -38.5978 -38.5461 -38.4520 -38.4482
     4.1932   8.0146  10.7338  10.9321  11.5963  11.7978  12.8653  12.8698
    13.1588  13.3695  14.1727  14.2083  15.2397  15.3221  18.0005

          k = 0.1667 0.1543 0.1443 (  3194 PWs)   bands (ev):

   -72.5321 -72.5060 -38.7774 -38.6389 -38.5979 -38.5463 -38.4525 -38.4484
     4.5606   8.1775   9.0518  11.1183  11.8547  12.0458  12.6493  12.8567
    13.1170  13.6612  13.9907  14.1787  14.6171  15.7519  18.0474

          k = 0.1667 0.1543-0.2887 (  3196 PWs)   bands (ev):

   -72.5321 -72.5060 -38.7774 -38.6390 -38.5979 -38.5463 -38.4529 -38.4484
     5.1106   7.6373   8.6717  10.7671  12.2573  12.2720  12.3252  12.8545
    13.0510  13.7251  13.7786  14.2339  14.4546  15.4267  17.8390

          k = 0.1667-0.3086 0.0000 (  3178 PWs)   bands (ev):

   -72.5191 -72.5191 -38.7163 -38.7163 -38.5671 -38.5671 -38.4470 -38.4470
     5.7160   5.7160  11.0862  11.0862  11.9756  11.9756  12.4055  12.4055
    13.5376  13.5376  14.1802  14.1802  15.3202  15.3202  17.4244

          k = 0.1667-0.3086 0.1443 (  3172 PWs)   bands (ev):

   -72.5190 -72.5190 -38.7163 -38.7163 -38.5669 -38.5669 -38.4471 -38.4471
     6.0381   6.0381  10.1490  10.1490  12.1222  12.1222  12.3875  12.3875
    13.4575  13.4575  14.2974  14.2974  14.6842  14.6842  19.4801

          k = 0.1667-0.3086-0.2887 (  3200 PWs)   bands (ev):

   -72.5191 -72.5191 -38.7166 -38.7166 -38.5672 -38.5672 -38.4474 -38.4474
     6.4903   6.4903   9.2288   9.2288  12.1950  12.1950  12.3746  12.3746
    13.3721  13.3721  14.2347  14.2347  14.6089  14.6089  20.9544

          k = 0.3333 0.0000 0.0000 (  3185 PWs)   bands (ev):

   -72.5198 -72.4984 -38.7461 -38.6933 -38.6597 -38.6237 -38.4438 -38.4414
     5.4834  10.2755  10.9957  11.1952  11.5900  11.7779  12.4494  12.8013
    13.2848  13.3032  14.5553  15.2487  15.8417  15.8573  16.0058

          k = 0.3333 0.0000 0.1443 (  3182 PWs)   bands (ev):

   -72.5198 -72.4984 -38.7460 -38.6933 -38.6597 -38.6235 -38.4441 -38.4413
     5.8085   9.6657  11.0588  11.2152  11.5070  11.9395  12.3009  12.8786
    13.1803  13.6007  13.9920  14.5668  15.0695  15.9790  17.6334

          k = 0.3333 0.0000-0.2887 (  3164 PWs)   bands (ev):

   -72.5198 -72.4984 -38.7458 -38.6929 -38.6595 -38.6235 -38.4440 -38.4414
     6.2668   8.8831  11.0104  11.2752  11.5362  11.9641  12.7336  12.7381
    12.9184  13.7601  13.9060  14.2522  14.6115  16.2195  18.6241

          k = 0.3333 0.1543 0.0000 (  3182 PWs)   bands (ev):

   -72.5166 -72.5015 -38.7648 -38.7089 -38.6519 -38.5965 -38.4433 -38.4425
     5.9711   9.3877  10.8885  11.2240  11.6885  12.0556  12.3837  12.4424
    13.2385  13.5541  14.5012  14.7222  15.7820  16.1299  16.3440

          k = 0.3333 0.1543 0.1443 (  3180 PWs)   bands (ev):

   -72.5166 -72.5015 -38.7646 -38.7089 -38.6521 -38.5964 -38.4433 -38.4425
     6.2855   9.4756  10.3653  11.2479  11.5940  11.9980  12.4040  12.6560
    13.4144  13.4962  14.0164  14.4636  14.6194  15.7677  17.8789

          k = 0.3333 0.1543-0.2887 (  3180 PWs)   bands (ev):

   -72.5166 -72.5015 -38.7646 -38.7089 -38.6521 -38.5964 -38.4434 -38.4426
     6.7232   9.1702  10.1313  11.4780  11.6002  11.8169  12.5887  12.6943
    12.7374  13.4147  13.9606  14.2318  14.5387  16.4987  16.7320

          k = 0.3333-0.3086 0.0000 (  3196 PWs)   bands (ev):

   -72.5091 -72.5091 -38.7568 -38.7568 -38.6045 -38.6045 -38.4431 -38.4431
     7.3742   7.3742  11.4288  11.4288  11.7729  11.7729  12.4998  12.4998
    13.3470  13.3470  14.1948  14.1948  16.2284  16.2284  17.1739

          k = 0.3333-0.3086 0.1443 (  3176 PWs)   bands (ev):

   -72.5091 -72.5091 -38.7565 -38.7565 -38.6044 -38.6044 -38.4429 -38.4429
     7.6522   7.6522  10.9067  10.9067  12.0177  12.0177  12.5579  12.5579
    13.3369  13.3369  14.0102  14.0102  14.9879  14.9879  17.6497

          k = 0.3333-0.3086-0.2887 (  3164 PWs)   bands (ev):

   -72.5091 -72.5091 -38.7564 -38.7564 -38.6044 -38.6044 -38.4427 -38.4427
     8.0149   8.0149  10.4953  10.4953  11.9941  11.9941  12.7050  12.7050
    12.8315  12.8315  14.0684  14.0684  14.8262  14.8262  17.6004

          k =-0.5000 0.0000 0.0000 (  3156 PWs)   bands (ev):

   -72.5041 -72.5041 -38.7223 -38.7223 -38.6803 -38.6803 -38.4373 -38.4373
     8.2574   8.2574  10.7813  10.7813  11.6015  11.6015  13.2210  13.2210
    13.3671  13.3671  15.2155  15.2155  17.0233  17.0233  17.4150

          k =-0.5000 0.0000 0.1443 (  3188 PWs)   bands (ev):

   -72.5041 -72.5041 -38.7227 -38.7227 -38.6803 -38.6803 -38.4377 -38.4377
     8.4778   8.4778  10.8338  10.8338  11.5409  11.5409  13.0865  13.0865
    13.4317  13.4317  14.4607  14.4607  16.1834  16.1834  17.5394

          k =-0.5000 0.0000-0.2887 (  3156 PWs)   bands (ev):

   -72.5041 -72.5041 -38.7224 -38.7224 -38.6803 -38.6803 -38.4372 -38.4372
     8.7268   8.7268  11.0363  11.0363  11.4845  11.4845  12.4813  12.4813
    13.4916  13.4916  13.9887  13.9887  16.1562  16.1562  17.6791

          k =-0.5000 0.1543 0.0000 (  3176 PWs)   bands (ev):

   -72.5041 -72.5041 -38.7657 -38.7657 -38.6354 -38.6354 -38.4392 -38.4392
     8.5979   8.5979  10.9814  10.9814  11.6048  11.6048  12.6007  12.6007
    13.0557  13.0557  15.1784  15.1784  15.7764  15.7764  17.7529

          k =-0.5000 0.1543 0.1443 (  3166 PWs)   bands (ev):

   -72.5041 -72.5041 -38.7656 -38.7656 -38.6353 -38.6353 -38.4392 -38.4392
     8.8515   8.8515  10.6828  10.6828  11.9682  11.9682  12.4515  12.4515
    13.4237  13.4237  14.2345  14.2345  15.4815  15.4815  17.4398

          k =-0.5000 0.1543-0.2887 (  3156 PWs)   bands (ev):

   -72.5041 -72.5041 -38.7655 -38.7655 -38.6352 -38.6352 -38.4391 -38.4391
     9.1300   9.1300  10.6739  10.6739  12.0499  12.0499  12.2987  12.2987
    13.1718  13.1718  13.9302  13.9302  15.8087  15.8087  16.6967

          k =-0.5000-0.3086 0.0000 (  3164 PWs)   bands (ev):

   -72.5041 -72.5041 -38.7893 -38.7893 -38.6093 -38.6093 -38.4412 -38.4412
     9.1176   9.1176  11.0866  11.0866  11.3814  11.3814  11.9252  11.9252
    13.2616  13.2616  14.4714  14.4714  15.5351  15.5351  18.4544

          k =-0.5000-0.3086 0.1443 (  3160 PWs)   bands (ev):

   -72.5041 -72.5041 -38.7894 -38.7894 -38.6094 -38.6094 -38.4410 -38.4410
     9.5318   9.5318  10.2918  10.2918  11.7833  11.7833  12.5529  12.5529
    13.3581  13.3581  13.8077  13.8077  15.1015  15.1015  17.9055

          k =-0.5000-0.3086-0.2887 (  3144 PWs)   bands (ev):

   -72.5041 -72.5041 -38.7889 -38.7889 -38.6094 -38.6094 -38.4410 -38.4410
     9.9702   9.9702  10.2922  10.2922  11.2486  11.2486  12.9853  12.9853
    13.0895  13.0895  14.0879  14.0879  14.9914  14.9914  16.3112

     the Fermi energy is    14.1773 ev

!    total energy              =    -737.54225659 Ry
     Harris-Foulkes estimate   =    -737.54225660 Ry
     estimated scf accuracy    <          2.1E-09 Ry

     total all-electron energy =     -6062.420891 Ry

     The total energy is the sum of the following terms:

     one-electron contribution =    -357.47012228 Ry
     hartree contribution      =     199.74628848 Ry
     xc contribution           =     -75.81327669 Ry
     ewald contribution        =    -283.17618379 Ry
     one-center paw contrib.   =    -220.82863063 Ry
     smearing contrib. (-TS)   =      -0.00033168 Ry

     convergence has been achieved in   9 iterations

     Forces acting on atoms (cartesian axes, Ry/au):

     atom    1 type  1   force =     0.00000000    0.00000000   -0.01360310
     atom    2 type  1   force =     0.00000000    0.00000000    0.01360310
     atom    3 type  2   force =     0.00000000    0.00000000   -0.02366114
     atom    4 type  2   force =     0.00000000    0.00000000    0.02366114

     Total force =     0.038598     Total SCF correction =     0.000076


     Computing stress (Cartesian axis) and pressure

          total   stress  (Ry/bohr**3)                   (kbar)     P=       30.52
   0.00108996   0.00000000   0.00000000          160.34        0.00        0.00
   0.00000000   0.00030628   0.00000000            0.00       45.06        0.00
   0.00000000   0.00000000  -0.00077378            0.00        0.00     -113.83


     Writing output data file ./basic.save/

     init_run     :      4.22s CPU      4.92s WALL (       1 calls)
     electrons    :     53.42s CPU     63.61s WALL (       1 calls)
     forces       :      2.28s CPU      2.59s WALL (       1 calls)
     stress       :      4.24s CPU      4.67s WALL (       1 calls)

     Called by init_run:
     wfcinit      :      1.80s CPU      1.87s WALL (       1 calls)
     potinit      :      0.91s CPU      0.96s WALL (       1 calls)
     hinit0       :      1.28s CPU      1.74s WALL (       1 calls)

     Called by electrons:
     c_bands      :     39.77s CPU     46.72s WALL (      10 calls)
     sum_band     :      7.62s CPU      9.30s WALL (      10 calls)
     v_of_rho     :      0.93s CPU      1.02s WALL (      10 calls)
     newd         :      2.02s CPU      2.99s WALL (      10 calls)
     PAW_pot      :      3.47s CPU      3.91s WALL (      10 calls)
     mix_rho      :      0.08s CPU      0.10s WALL (      10 calls)

     Called by c_bands:
     init_us_2    :      0.58s CPU      0.66s WALL (     828 calls)
     cegterg      :     38.50s CPU     45.11s WALL (     360 calls)

     Called by sum_band:
     sum_band:bec :      0.02s CPU      0.02s WALL (     360 calls)
     addusdens    :      2.23s CPU      3.19s WALL (      10 calls)

     Called by *egterg:
     h_psi        :     24.18s CPU     28.32s WALL (    1472 calls)
     s_psi        :      3.05s CPU      3.44s WALL (    1472 calls)
     g_psi        :      0.09s CPU      0.10s WALL (    1076 calls)
     cdiaghg      :      1.82s CPU      2.30s WALL (    1400 calls)

     Called by h_psi:
     h_psi:calbec :      3.84s CPU      4.47s WALL (    1472 calls)
     vloc_psi     :     17.12s CPU     20.27s WALL (    1472 calls)
     add_vuspsi   :      3.07s CPU      3.42s WALL (    1472 calls)

     General routines
     calbec       :      5.94s CPU      6.90s WALL (    2012 calls)
     fft          :      0.44s CPU      0.52s WALL (     154 calls)
     ffts         :      0.02s CPU      0.02s WALL (      20 calls)
     fftw         :     17.90s CPU     21.22s WALL (   54962 calls)
     interpolate  :      0.04s CPU      0.05s WALL (      10 calls)

     Parallel routines
     fft_scatt_xy :      2.45s CPU      2.69s WALL (   55136 calls)
     fft_scatt_yz :      4.62s CPU      6.31s WALL (   55136 calls)

     PWSCF        :   1m 5.19s CPU   1m17.63s WALL


   This run was terminated on:   0:23:40  13Aug2020            

=------------------------------------------------------------------------------=
   JOB DONE.
=------------------------------------------------------------------------------=
