
     Program PWSCF v.6.5 starts on 12Aug2020 at 23:53:34 

     This program is part of the open-source Quantum ESPRESSO suite
     for quantum simulation of materials; please cite
         "P. Giannozzi et al., J. Phys.:Condens. Matter 21 395502 (2009);
         "P. Giannozzi et al., J. Phys.:Condens. Matter 29 465901 (2017);
          URL http://www.quantum-espresso.org", 
     in publications or presentations arising from this work. More details at
     http://www.quantum-espresso.org/quote

     Parallel version (MPI), running on     2 processors

     MPI processes distributed on     1 nodes
     R & G space division:  proc/nbgrp/npool/nimage =       2
     Reading input from FeAl5.in

     Current dimensions of program PWSCF are:
     Max number of different atomic species (ntypx) = 10
     Max number of k-points (npk) =  40000
     Max angular momentum in pseudopotentials (lmaxx) =  3

     IMPORTANT: XC functional enforced from input :
     Exchange-correlation= PBE
                           (   1   4   3   4   0   0   0)
     Any further DFT definition will be discarded
     Please, verify this is what you really want

               file Fe.pbe-spn-kjpaw_psl.0.2.1.UPF: wavefunction(s)  3D renormalized
               file Al.pbe-n-kjpaw_psl.0.1.UPF: wavefunction(s)  3S renormalized

     Subspace diagonalization in iterative solution of the eigenvalue problem:
     a serial algorithm will be used

     Message from routine setup:
     using ibrav=0 with symmetry is DISCOURAGED, use correct ibrav instead

     Parallelization info
     --------------------
     sticks:   dense  smooth     PW     G-vecs:    dense   smooth      PW
     Min        1075     427    132                50750    12837    2154
     Max        1076     428    133                50751    12838    2155
     Sum        2151     855    265               101501    25675    4309



     bravais-lattice index     =            0
     lattice parameter (alat)  =       4.8581  a.u.
     unit-cell volume          =     324.2952 (a.u.)^3
     number of atoms/cell      =            4
     number of atomic types    =            2
     number of electrons       =        38.00
     number of Kohn-Sham states=           23
     kinetic-energy cutoff     =      70.0000  Ry
     charge density cutoff     =     700.0000  Ry
     convergence threshold     =      1.0E-08
     mixing beta               =       0.7000
     number of iterations used =            8  plain     mixing
     Exchange-correlation= PBE
                           (   1   4   3   4   0   0   0)

     celldm(1)=   4.858098  celldm(2)=   0.000000  celldm(3)=   0.000000
     celldm(4)=   0.000000  celldm(5)=   0.000000  celldm(6)=   0.000000

     crystal axes: (cart. coord. in units of alat)
               a(1) = (   1.000000   0.000000   0.000000 )  
               a(2) = (   0.000000   1.632981   0.000000 )  
               a(3) = (   0.000000   0.000000   1.732050 )  

     reciprocal axes: (cart. coord. in units 2 pi/alat)
               b(1) = (  1.000000  0.000000  0.000000 )  
               b(2) = (  0.000000  0.612377  0.000000 )  
               b(3) = (  0.000000  0.000000  0.577351 )  


     PseudoPot. # 1 for Fe read from file:
     ./Fe.pbe-spn-kjpaw_psl.0.2.1.UPF
     MD5 check sum: 4338034a7fd945be4bb7db5fd3b2d142
     Pseudo is Projector augmented-wave + core cor, Zval = 16.0
     Generated using "atomic" code by A. Dal Corso v.5.0.2 svn rev. 9415
     Shape of augmentation charge: PSQ
     Using radial grid of 1191 points,  6 beta functions with: 
                l(1) =   0
                l(2) =   0
                l(3) =   1
                l(4) =   1
                l(5) =   2
                l(6) =   2
     Q(r) pseudized with 0 coefficients 


     PseudoPot. # 2 for Al read from file:
     ./Al.pbe-n-kjpaw_psl.0.1.UPF
     MD5 check sum: 9111391c6252b599ac5002cf021b5091
     Pseudo is Projector augmented-wave + core cor, Zval =  3.0
     Generated using "atomic" code by A. Dal Corso v.5.0.2 svn rev. 9415
     Shape of augmentation charge: PSQ
     Using radial grid of 1135 points,  4 beta functions with: 
                l(1) =   0
                l(2) =   0
                l(3) =   1
                l(4) =   1
     Q(r) pseudized with 0 coefficients 


     atomic species   valence    mass     pseudopotential
        Fe            16.00    55.84500     Fe( 1.00)
        Al             3.00    26.98100     Al( 1.00)

      8 Sym. Ops., with inversion, found ( 6 have fractional translation)



   Cartesian axes

     site n.     atom                  positions (alat units)
         1           Fe  tau(   1) = (   0.7500000   1.2247358   1.5877123  )
         2           Fe  tau(   2) = (   0.2500000   0.4082453   0.1443375  )
         3           Al  tau(   3) = (   0.2500000   1.2247358   0.7216874  )
         4           Al  tau(   4) = (   0.7500000   0.4082453   1.0103624  )

     number of k points=    36  Marzari-Vanderbilt smearing, width (Ry)=  0.0050
                       cart. coord. in units 2pi/alat
        k(    1) = (   0.0000000   0.0000000   0.0000000), wk =   0.0208333
        k(    2) = (   0.0000000   0.0000000   0.1443377), wk =   0.0416667
        k(    3) = (   0.0000000   0.0000000  -0.2886753), wk =   0.0208333
        k(    4) = (   0.0000000   0.1530942   0.0000000), wk =   0.0416667
        k(    5) = (   0.0000000   0.1530942   0.1443377), wk =   0.0833333
        k(    6) = (   0.0000000   0.1530942  -0.2886753), wk =   0.0416667
        k(    7) = (   0.0000000  -0.3061885   0.0000000), wk =   0.0208333
        k(    8) = (   0.0000000  -0.3061885   0.1443377), wk =   0.0416667
        k(    9) = (   0.0000000  -0.3061885  -0.2886753), wk =   0.0208333
        k(   10) = (   0.1666667   0.0000000   0.0000000), wk =   0.0416667
        k(   11) = (   0.1666667   0.0000000   0.1443377), wk =   0.0833333
        k(   12) = (   0.1666667   0.0000000  -0.2886753), wk =   0.0416667
        k(   13) = (   0.1666667   0.1530942   0.0000000), wk =   0.0833333
        k(   14) = (   0.1666667   0.1530942   0.1443377), wk =   0.1666667
        k(   15) = (   0.1666667   0.1530942  -0.2886753), wk =   0.0833333
        k(   16) = (   0.1666667  -0.3061885   0.0000000), wk =   0.0416667
        k(   17) = (   0.1666667  -0.3061885   0.1443377), wk =   0.0833333
        k(   18) = (   0.1666667  -0.3061885  -0.2886753), wk =   0.0416667
        k(   19) = (   0.3333333   0.0000000   0.0000000), wk =   0.0416667
        k(   20) = (   0.3333333   0.0000000   0.1443377), wk =   0.0833333
        k(   21) = (   0.3333333   0.0000000  -0.2886753), wk =   0.0416667
        k(   22) = (   0.3333333   0.1530942   0.0000000), wk =   0.0833333
        k(   23) = (   0.3333333   0.1530942   0.1443377), wk =   0.1666667
        k(   24) = (   0.3333333   0.1530942  -0.2886753), wk =   0.0833333
        k(   25) = (   0.3333333  -0.3061885   0.0000000), wk =   0.0416667
        k(   26) = (   0.3333333  -0.3061885   0.1443377), wk =   0.0833333
        k(   27) = (   0.3333333  -0.3061885  -0.2886753), wk =   0.0416667
        k(   28) = (  -0.5000000   0.0000000   0.0000000), wk =   0.0208333
        k(   29) = (  -0.5000000   0.0000000   0.1443377), wk =   0.0416667
        k(   30) = (  -0.5000000   0.0000000  -0.2886753), wk =   0.0208333
        k(   31) = (  -0.5000000   0.1530942   0.0000000), wk =   0.0416667
        k(   32) = (  -0.5000000   0.1530942   0.1443377), wk =   0.0833333
        k(   33) = (  -0.5000000   0.1530942  -0.2886753), wk =   0.0416667
        k(   34) = (  -0.5000000  -0.3061885   0.0000000), wk =   0.0208333
        k(   35) = (  -0.5000000  -0.3061885   0.1443377), wk =   0.0416667
        k(   36) = (  -0.5000000  -0.3061885  -0.2886753), wk =   0.0208333

     Dense  grid:   101501 G-vectors     FFT dimensions: (  48,  72,  72)

     Smooth grid:    25675 G-vectors     FFT dimensions: (  30,  48,  45)

     Estimated max dynamical RAM per process >     211.93 MB

     Estimated total dynamical RAM >     423.86 MB

     Check: negative core charge=   -0.000013

     Initial potential from superposition of free atoms

     starting charge   37.99454, renormalised to   38.00000
     Starting wfcs are   34 randomized atomic wfcs
     Checking if some PAW data can be deallocated... 

     total cpu time spent up to now is       10.8 secs

     Self-consistent Calculation

     iteration #  1     ecut=    70.00 Ry     beta= 0.70
     Davidson diagonalization with overlap
     ethr =  1.00E-02,  avg # of iterations =  3.0

     Threshold (ethr) on eigenvalues was too large:
     Diagonalizing with lowered threshold

     Davidson diagonalization with overlap
     ethr =  3.78E-04,  avg # of iterations =  3.8

     total cpu time spent up to now is       25.1 secs

     total energy              =    -737.46869170 Ry
     Harris-Foulkes estimate   =    -737.58197410 Ry
     estimated scf accuracy    <       0.15425317 Ry

     iteration #  2     ecut=    70.00 Ry     beta= 0.70
     Davidson diagonalization with overlap
     ethr =  4.06E-04,  avg # of iterations =  3.6

     total cpu time spent up to now is       32.6 secs

     total energy              =    -737.31180508 Ry
     Harris-Foulkes estimate   =    -737.73911534 Ry
     estimated scf accuracy    <       1.79964792 Ry

     iteration #  3     ecut=    70.00 Ry     beta= 0.70
     Davidson diagonalization with overlap
     ethr =  4.06E-04,  avg # of iterations =  3.3

     total cpu time spent up to now is       39.6 secs

     total energy              =    -737.53161783 Ry
     Harris-Foulkes estimate   =    -737.55407175 Ry
     estimated scf accuracy    <       0.09399785 Ry

     iteration #  4     ecut=    70.00 Ry     beta= 0.70
     Davidson diagonalization with overlap
     ethr =  2.47E-04,  avg # of iterations =  2.0

     total cpu time spent up to now is       46.5 secs

     total energy              =    -737.54247060 Ry
     Harris-Foulkes estimate   =    -737.54286951 Ry
     estimated scf accuracy    <       0.00091212 Ry

     iteration #  5     ecut=    70.00 Ry     beta= 0.70
     Davidson diagonalization with overlap
     ethr =  2.40E-06,  avg # of iterations =  3.6

     total cpu time spent up to now is       55.7 secs

     total energy              =    -737.54311066 Ry
     Harris-Foulkes estimate   =    -737.54314648 Ry
     estimated scf accuracy    <       0.00014655 Ry

     iteration #  6     ecut=    70.00 Ry     beta= 0.70
     Davidson diagonalization with overlap
     ethr =  3.86E-07,  avg # of iterations =  1.2

     total cpu time spent up to now is       59.7 secs

     total energy              =    -737.54312161 Ry
     Harris-Foulkes estimate   =    -737.54312323 Ry
     estimated scf accuracy    <       0.00000416 Ry

     iteration #  7     ecut=    70.00 Ry     beta= 0.70
     Davidson diagonalization with overlap
     ethr =  1.10E-08,  avg # of iterations =  3.4

     total cpu time spent up to now is       67.8 secs

     total energy              =    -737.54312353 Ry
     Harris-Foulkes estimate   =    -737.54312396 Ry
     estimated scf accuracy    <       0.00000123 Ry

     iteration #  8     ecut=    70.00 Ry     beta= 0.70
     Davidson diagonalization with overlap
     ethr =  3.24E-09,  avg # of iterations =  1.2

     total cpu time spent up to now is       72.1 secs

     total energy              =    -737.54312366 Ry
     Harris-Foulkes estimate   =    -737.54312369 Ry
     estimated scf accuracy    <       0.00000008 Ry

     iteration #  9     ecut=    70.00 Ry     beta= 0.70
     Davidson diagonalization with overlap
     ethr =  2.05E-10,  avg # of iterations =  3.0

     total cpu time spent up to now is       77.4 secs

     End of self-consistent calculation

          k = 0.0000 0.0000 0.0000 (  3239 PWs)   bands (ev):

   -72.6774 -72.6375 -38.9450 -38.7125 -38.7043 -38.6397 -38.5928 -38.5888
     2.9635   9.2631  10.0905  10.4715  10.7209  11.7921  12.1131  12.8764
    13.1222  13.2563  13.8852  14.0499  14.8492  14.8763  16.2539

          k = 0.0000 0.0000 0.1443 (  3190 PWs)   bands (ev):

   -72.6773 -72.6375 -38.9447 -38.7119 -38.7042 -38.6392 -38.5924 -38.5886
     3.3651   7.7461   9.9686  10.0880  11.5414  12.1452  12.7927  12.8757
    13.1284  13.2535  13.8525  14.0624  14.6852  14.8447  17.3880

          k = 0.0000 0.0000-0.2887 (  3242 PWs)   bands (ev):

   -72.6773 -72.6375 -38.9451 -38.7122 -38.7047 -38.6396 -38.5934 -38.5892
     3.9980   6.3925   9.6782  10.4387  12.1076  12.1252  12.4553  13.1346
    13.2379  13.8235  13.9457  14.0714  14.6036  14.8403  15.3290

          k = 0.0000 0.1531 0.0000 (  3219 PWs)   bands (ev):

   -72.6715 -72.6433 -38.9149 -38.7538 -38.6948 -38.6492 -38.5883 -38.5818
     3.4911   7.3396  10.3833  10.4546  11.1717  11.6989  12.7233  13.1566
    13.2429  13.2701  13.9104  14.0147  14.6761  14.7109  17.8447

          k = 0.0000 0.1531 0.1443 (  3221 PWs)   bands (ev):

   -72.6715 -72.6434 -38.9148 -38.7537 -38.6949 -38.6492 -38.5885 -38.5821
     3.8774   7.5454   8.3909  10.5744  11.6930  11.8313  12.6624  12.9219
    13.2405  13.6057  13.9084  13.9985  14.6833  14.7496  17.7123

          k = 0.0000 0.1531-0.2887 (  3218 PWs)   bands (ev):

   -72.6715 -72.6433 -38.9149 -38.7537 -38.6948 -38.6490 -38.5889 -38.5822
     4.4722   6.9279   8.0340  10.1156  11.9548  12.0320  12.5726  12.6514
    13.2379  13.9063  13.9833  14.0971  14.1544  14.6900  17.4156

          k = 0.0000-0.3062 0.0000 (  3194 PWs)   bands (ev):

   -72.6574 -72.6574 -38.8384 -38.8384 -38.6720 -38.6720 -38.5806 -38.5806
     5.0192   5.0192  10.6158  10.6158  11.6301  11.6301  12.7232  12.7232
    13.5653  13.5653  14.1257  14.1257  14.3269  14.3269  17.1079

          k = 0.0000-0.3062 0.1443 (  3198 PWs)   bands (ev):

   -72.6574 -72.6574 -38.8384 -38.8384 -38.6720 -38.6720 -38.5810 -38.5810
     5.3606   5.3606   9.5477   9.5477  11.8018  11.8018  12.4362  12.4362
    13.5531  13.5531  14.2527  14.2527  14.3347  14.3347  18.8199

          k = 0.0000-0.3062-0.2887 (  3224 PWs)   bands (ev):

   -72.6574 -72.6574 -38.8386 -38.8386 -38.6721 -38.6721 -38.5816 -38.5816
     5.8534   5.8534   8.5203   8.5203  11.8900  11.8900  12.2823  12.2823
    13.5411  13.5411  14.3282  14.3282  14.3423  14.3423  21.0383

          k = 0.1667 0.0000 0.0000 (  3225 PWs)   bands (ev):

   -72.6697 -72.6352 -38.9250 -38.7481 -38.7230 -38.6929 -38.5859 -38.5821
     3.5903   9.5960  10.4943  10.8407  11.1788  11.8288  12.0570  12.8467
    12.9487  13.0525  13.8041  14.3474  15.1086  15.1731  16.3220

          k = 0.1667 0.0000 0.1443 (  3214 PWs)   bands (ev):

   -72.6697 -72.6352 -38.9247 -38.7477 -38.7231 -38.6927 -38.5864 -38.5819
     3.9735   8.2782  10.3372  10.5676  11.7732  12.0833  12.5222  12.8881
    12.9018  13.2464  13.7586  13.8680  15.0588  15.1709  17.8036

          k = 0.1667 0.0000-0.2887 (  3226 PWs)   bands (ev):

   -72.6697 -72.6352 -38.9248 -38.7476 -38.7232 -38.6929 -38.5868 -38.5823
     4.5613   7.0387  10.0573  10.8444  12.0577  12.3160  12.6955  12.8291
    12.9393  13.6140  13.8272  13.8940  14.0871  15.4993  16.6075

          k = 0.1667 0.1531 0.0000 (  3217 PWs)   bands (ev):

   -72.6647 -72.6403 -38.9033 -38.7712 -38.7345 -38.6859 -38.5829 -38.5792
     4.1078   7.8771  10.6378  10.8338  11.4888  11.6927  12.7302  12.7414
    13.0315  13.2254  14.0453  14.0591  15.1055  15.1694  17.8257

          k = 0.1667 0.1531 0.1443 (  3219 PWs)   bands (ev):

   -72.6647 -72.6403 -38.9033 -38.7712 -38.7345 -38.6860 -38.5831 -38.5792
     4.4765   8.0484   8.9521  11.0049  11.7473  11.9367  12.5177  12.7293
    12.9900  13.5283  13.8532  14.0353  14.4642  15.5798  17.8389

          k = 0.1667 0.1531-0.2887 (  3208 PWs)   bands (ev):

   -72.6646 -72.6402 -38.9031 -38.7711 -38.7343 -38.6859 -38.5834 -38.5792
     5.0302   7.5351   8.5485  10.6444  12.1279  12.1580  12.2152  12.7267
    12.9286  13.5933  13.6427  14.0880  14.2944  15.2599  17.6299

          k = 0.1667-0.3062 0.0000 (  3194 PWs)   bands (ev):

   -72.6524 -72.6524 -38.8447 -38.8447 -38.7054 -38.7054 -38.5780 -38.5780
     5.6078   5.6078  10.9882  10.9882  11.8577  11.8577  12.2793  12.2793
    13.4139  13.4139  14.0380  14.0380  15.1714  15.1714  17.2900

          k = 0.1667-0.3062 0.1443 (  3198 PWs)   bands (ev):

   -72.6524 -72.6524 -38.8448 -38.8448 -38.7054 -38.7054 -38.5781 -38.5781
     5.9321   5.9321  10.0374  10.0374  12.0104  12.0104  12.2646  12.2646
    13.3345  13.3345  14.1524  14.1524  14.5365  14.5365  19.3486

          k = 0.1667-0.3062-0.2887 (  3204 PWs)   bands (ev):

   -72.6524 -72.6524 -38.8448 -38.8448 -38.7054 -38.7054 -38.5784 -38.5784
     6.3893   6.3893   9.1076   9.1076  12.0846  12.0846  12.2550  12.2550
    13.2488  13.2488  14.0861  14.0861  14.4627  14.4627  20.8121

          k = 0.3333 0.0000 0.0000 (  3215 PWs)   bands (ev):

   -72.6525 -72.6325 -38.8732 -38.8296 -38.7982 -38.7567 -38.5744 -38.5721
     5.4067  10.1796  10.9024  11.1085  11.4428  11.6817  12.3019  12.6864
    13.1462  13.1692  14.3969  15.1435  15.6672  15.7400  15.8907

          k = 0.3333 0.0000 0.1443 (  3208 PWs)   bands (ev):

   -72.6525 -72.6325 -38.8731 -38.8295 -38.7981 -38.7567 -38.5746 -38.5720
     5.7328   9.5749  10.9673  11.0986  11.4195  11.8181  12.1652  12.7520
    13.0524  13.4674  13.8533  14.4067  14.9371  15.8116  17.4328

          k = 0.3333 0.0000-0.2887 (  3184 PWs)   bands (ev):

   -72.6525 -72.6325 -38.8730 -38.8290 -38.7979 -38.7564 -38.5744 -38.5719
     6.1937   8.7920  10.9003  11.1807  11.4452  11.8407  12.6235  12.6285
    12.7864  13.6064  13.7660  14.0803  14.4535  16.0652  18.4295

          k = 0.3333 0.1531 0.0000 (  3206 PWs)   bands (ev):

   -72.6496 -72.6354 -38.8927 -38.8415 -38.7884 -38.7342 -38.5738 -38.5729
     5.8870   9.2614  10.7900  11.1222  11.5878  11.9544  12.2562  12.3199
    13.1164  13.4155  14.3495  14.5827  15.6614  16.0132  16.2081

          k = 0.3333 0.1531 0.1443 (  3205 PWs)   bands (ev):

   -72.6496 -72.6354 -38.8928 -38.8415 -38.7885 -38.7342 -38.5738 -38.5729
     6.2026   9.3578  10.2611  11.1461  11.4940  11.8912  12.2869  12.5310
    13.2867  13.3730  13.8778  14.3187  14.4756  15.6228  17.7060

          k = 0.3333 0.1531-0.2887 (  3200 PWs)   bands (ev):

   -72.6495 -72.6354 -38.8926 -38.8415 -38.7885 -38.7341 -38.5739 -38.5730
     6.6429   9.0683  10.0168  11.3657  11.5028  11.7064  12.4702  12.5819
    12.6304  13.2726  13.8216  14.0809  14.3849  16.3165  16.5988

          k = 0.3333-0.3062 0.0000 (  3204 PWs)   bands (ev):

   -72.6425 -72.6425 -38.8859 -38.8859 -38.7425 -38.7425 -38.5734 -38.5734
     7.2696   7.2696  11.3204  11.3204  11.6602  11.6602  12.3826  12.3826
    13.2232  13.2232  14.0630  14.0630  16.1061  16.1061  17.0319

          k = 0.3333-0.3062 0.1443 (  3210 PWs)   bands (ev):

   -72.6425 -72.6425 -38.8859 -38.8859 -38.7427 -38.7427 -38.5734 -38.5734
     7.5492   7.5492  10.7997  10.7997  11.9033  11.9033  12.4410  12.4410
    13.2164  13.2164  13.8811  13.8811  14.8420  14.8420  17.5100

          k = 0.3333-0.3062-0.2887 (  3208 PWs)   bands (ev):

   -72.6425 -72.6425 -38.8858 -38.8858 -38.7427 -38.7427 -38.5734 -38.5734
     7.9149   7.9149  10.3846  10.3846  11.8862  11.8862  12.5801  12.5801
    12.7194  12.7194  13.9283  13.9283  14.6752  14.6752  17.4726

          k =-0.5000 0.0000 0.0000 (  3172 PWs)   bands (ev):

   -72.6375 -72.6375 -38.8596 -38.8596 -38.8101 -38.8101 -38.5678 -38.5678
     8.1807   8.1807  10.6876  10.6876  11.4897  11.4897  13.0751  13.0751
    13.2355  13.2355  15.0791  15.0791  16.9231  16.9231  17.2481

          k =-0.5000 0.0000 0.1443 (  3212 PWs)   bands (ev):

   -72.6375 -72.6375 -38.8599 -38.8599 -38.8104 -38.8104 -38.5684 -38.5684
     8.4018   8.4018  10.7397  10.7397  11.4323  11.4323  12.9621  12.9621
    13.2941  13.2941  14.3237  14.3237  16.0386  16.0386  17.3769

          k =-0.5000 0.0000-0.2887 (  3196 PWs)   bands (ev):

   -72.6375 -72.6375 -38.8599 -38.8599 -38.8104 -38.8104 -38.5680 -38.5680
     8.6510   8.6510  10.9469  10.9469  11.3787  11.3787  12.3767  12.3767
    13.3484  13.3484  13.8286  13.8286  16.0120  16.0120  17.5216

          k =-0.5000 0.1531 0.0000 (  3186 PWs)   bands (ev):

   -72.6375 -72.6375 -38.8974 -38.8974 -38.7709 -38.7709 -38.5695 -38.5695
     8.5146   8.5146  10.8812  10.8812  11.4827  11.4827  12.4673  12.4673
    12.9420  12.9420  15.0301  15.0301  15.6421  15.6421  17.6321

          k =-0.5000 0.1531 0.1443 (  3186 PWs)   bands (ev):

   -72.6375 -72.6375 -38.8974 -38.8974 -38.7710 -38.7710 -38.5695 -38.5695
     8.7688   8.7688  10.5800  10.5800  11.8520  11.8520  12.3332  12.3332
    13.2962  13.2962  14.1087  14.1087  15.3292  15.3292  17.2986

          k =-0.5000 0.1531-0.2887 (  3192 PWs)   bands (ev):

   -72.6375 -72.6375 -38.8973 -38.8973 -38.7711 -38.7711 -38.5696 -38.5696
     9.0465   9.0465  10.5778  10.5778  11.9409  11.9409  12.1860  12.1860
    13.0387  13.0387  13.7896  13.7896  15.6618  15.6618  16.5511

          k =-0.5000-0.3062 0.0000 (  3208 PWs)   bands (ev):

   -72.6375 -72.6375 -38.9196 -38.9196 -38.7474 -38.7474 -38.5713 -38.5713
     9.0226   9.0226  10.9727  10.9727  11.2663  11.2663  11.8094  11.8094
    13.1439  13.1439  14.3368  14.3368  15.4062  15.4062  18.3246

          k =-0.5000-0.3062 0.1443 (  3188 PWs)   bands (ev):

   -72.6375 -72.6375 -38.9194 -38.9194 -38.7472 -38.7472 -38.5711 -38.5711
     9.4375   9.4375  10.1836  10.1836  11.6727  11.6727  12.4302  12.4302
    13.2399  13.2399  13.6875  13.6875  14.9572  14.9572  17.7648

          k =-0.5000-0.3062-0.2887 (  3200 PWs)   bands (ev):

   -72.6375 -72.6375 -38.9193 -38.9193 -38.7474 -38.7474 -38.5713 -38.5713
     9.8642   9.8642  10.2003  10.2003  11.1453  11.1453  12.8625  12.8625
    12.9653  12.9653  13.9649  13.9649  14.8424  14.8424  16.1703

     the Fermi energy is    14.0372 ev

!    total energy              =    -737.54312367 Ry
     Harris-Foulkes estimate   =    -737.54312368 Ry
     estimated scf accuracy    <          1.2E-09 Ry

     total all-electron energy =     -6062.421758 Ry

     The total energy is the sum of the following terms:

     one-electron contribution =    -358.08067798 Ry
     hartree contribution      =     199.86434295 Ry
     xc contribution           =     -75.79159494 Ry
     ewald contribution        =    -282.70924456 Ry
     one-center paw contrib.   =    -220.82562547 Ry
     smearing contrib. (-TS)   =      -0.00032367 Ry

     convergence has been achieved in   9 iterations

     Forces acting on atoms (cartesian axes, Ry/au):

     atom    1 type  1   force =     0.00000000    0.00000000   -0.01198451
     atom    2 type  1   force =     0.00000000    0.00000000    0.01198451
     atom    3 type  2   force =     0.00000000    0.00000000   -0.02284388
     atom    4 type  2   force =     0.00000000    0.00000000    0.02284388

     Total force =     0.036482     Total SCF correction =     0.000107


     Computing stress (Cartesian axis) and pressure

          total   stress  (Ry/bohr**3)                   (kbar)     P=       15.91
   0.00100861   0.00000000   0.00000000          148.37        0.00        0.00
   0.00000000   0.00013557   0.00000000            0.00       19.94        0.00
   0.00000000   0.00000000  -0.00081979            0.00        0.00     -120.60


     Writing output data file ./basic.save/

     init_run     :      5.58s CPU      9.85s WALL (       1 calls)
     electrons    :     52.86s CPU     66.71s WALL (       1 calls)
     forces       :      2.36s CPU      3.01s WALL (       1 calls)
     stress       :      4.41s CPU      4.97s WALL (       1 calls)

     Called by init_run:
     wfcinit      :      2.83s CPU      4.69s WALL (       1 calls)
     potinit      :      0.98s CPU      1.46s WALL (       1 calls)
     hinit0       :      1.41s CPU      1.84s WALL (       1 calls)

     Called by electrons:
     c_bands      :     38.36s CPU     46.03s WALL (      10 calls)
     sum_band     :      8.31s CPU     12.36s WALL (      10 calls)
     v_of_rho     :      1.07s CPU      1.37s WALL (      10 calls)
     newd         :      2.39s CPU      4.60s WALL (      10 calls)
     PAW_pot      :      3.34s CPU      4.01s WALL (      10 calls)
     mix_rho      :      0.10s CPU      0.13s WALL (      10 calls)

     Called by c_bands:
     init_us_2    :      0.58s CPU      0.82s WALL (     828 calls)
     cegterg      :     37.12s CPU     44.51s WALL (     360 calls)

     Called by sum_band:
     sum_band:bec :      0.01s CPU      0.02s WALL (     360 calls)
     addusdens    :      2.18s CPU      4.44s WALL (      10 calls)

     Called by *egterg:
     h_psi        :     24.35s CPU     29.70s WALL (    1410 calls)
     s_psi        :      2.95s CPU      3.58s WALL (    1410 calls)
     g_psi        :      0.09s CPU      0.10s WALL (    1014 calls)
     cdiaghg      :      1.71s CPU      2.27s WALL (    1338 calls)

     Called by h_psi:
     h_psi:calbec :      3.77s CPU      4.61s WALL (    1410 calls)
     vloc_psi     :     17.47s CPU     21.45s WALL (    1410 calls)
     add_vuspsi   :      2.96s CPU      3.47s WALL (    1410 calls)

     General routines
     calbec       :      6.20s CPU      7.80s WALL (    1950 calls)
     fft          :      0.64s CPU      0.85s WALL (     154 calls)
     ffts         :      0.01s CPU      0.02s WALL (      20 calls)
     fftw         :     18.62s CPU     23.07s WALL (   54900 calls)
     interpolate  :      0.06s CPU      0.08s WALL (      10 calls)

     Parallel routines
     fft_scatt_xy :      2.42s CPU      2.79s WALL (   55074 calls)
     fft_scatt_yz :      5.74s CPU      8.25s WALL (   55074 calls)

     PWSCF        :   1m 6.11s CPU   1m25.74s WALL


   This run was terminated on:  23:55: 0  12Aug2020            

=------------------------------------------------------------------------------=
   JOB DONE.
=------------------------------------------------------------------------------=
