
     Program PWSCF v.6.5 starts on 13Aug2020 at  0:25: 1 

     This program is part of the open-source Quantum ESPRESSO suite
     for quantum simulation of materials; please cite
         "P. Giannozzi et al., J. Phys.:Condens. Matter 21 395502 (2009);
         "P. Giannozzi et al., J. Phys.:Condens. Matter 29 465901 (2017);
          URL http://www.quantum-espresso.org", 
     in publications or presentations arising from this work. More details at
     http://www.quantum-espresso.org/quote

     Parallel version (MPI), running on     2 processors

     MPI processes distributed on     1 nodes
     R & G space division:  proc/nbgrp/npool/nimage =       2
     Reading input from FeAlb170.in

     Current dimensions of program PWSCF are:
     Max number of different atomic species (ntypx) = 10
     Max number of k-points (npk) =  40000
     Max angular momentum in pseudopotentials (lmaxx) =  3

     IMPORTANT: XC functional enforced from input :
     Exchange-correlation= PBE
                           (   1   4   3   4   0   0   0)
     Any further DFT definition will be discarded
     Please, verify this is what you really want

               file Fe.pbe-spn-kjpaw_psl.0.2.1.UPF: wavefunction(s)  3D renormalized
               file Al.pbe-n-kjpaw_psl.0.1.UPF: wavefunction(s)  3S renormalized

     Subspace diagonalization in iterative solution of the eigenvalue problem:
     a serial algorithm will be used

     Message from routine setup:
     using ibrav=0 with symmetry is DISCOURAGED, use correct ibrav instead

     Parallelization info
     --------------------
     sticks:   dense  smooth     PW     G-vecs:    dense   smooth      PW
     Min        1120     441    135                52855    13331    2219
     Max        1121     442    136                52856    13332    2220
     Sum        2241     883    271               105711    26663    4439



     bravais-lattice index     =            0
     lattice parameter (alat)  =       4.8581  a.u.
     unit-cell volume          =     337.6045 (a.u.)^3
     number of atoms/cell      =            4
     number of atomic types    =            2
     number of electrons       =        38.00
     number of Kohn-Sham states=           23
     kinetic-energy cutoff     =      70.0000  Ry
     charge density cutoff     =     700.0000  Ry
     convergence threshold     =      1.0E-08
     mixing beta               =       0.7000
     number of iterations used =            8  plain     mixing
     Exchange-correlation= PBE
                           (   1   4   3   4   0   0   0)

     celldm(1)=   4.858098  celldm(2)=   0.000000  celldm(3)=   0.000000
     celldm(4)=   0.000000  celldm(5)=   0.000000  celldm(6)=   0.000000

     crystal axes: (cart. coord. in units of alat)
               a(1) = (   1.000000   0.000000   0.000000 )  
               a(2) = (   0.000000   1.700000   0.000000 )  
               a(3) = (   0.000000   0.000000   1.732050 )  

     reciprocal axes: (cart. coord. in units 2 pi/alat)
               b(1) = (  1.000000  0.000000  0.000000 )  
               b(2) = (  0.000000  0.588235  0.000000 )  
               b(3) = (  0.000000  0.000000  0.577351 )  


     PseudoPot. # 1 for Fe read from file:
     ./Fe.pbe-spn-kjpaw_psl.0.2.1.UPF
     MD5 check sum: 4338034a7fd945be4bb7db5fd3b2d142
     Pseudo is Projector augmented-wave + core cor, Zval = 16.0
     Generated using "atomic" code by A. Dal Corso v.5.0.2 svn rev. 9415
     Shape of augmentation charge: PSQ
     Using radial grid of 1191 points,  6 beta functions with: 
                l(1) =   0
                l(2) =   0
                l(3) =   1
                l(4) =   1
                l(5) =   2
                l(6) =   2
     Q(r) pseudized with 0 coefficients 


     PseudoPot. # 2 for Al read from file:
     ./Al.pbe-n-kjpaw_psl.0.1.UPF
     MD5 check sum: 9111391c6252b599ac5002cf021b5091
     Pseudo is Projector augmented-wave + core cor, Zval =  3.0
     Generated using "atomic" code by A. Dal Corso v.5.0.2 svn rev. 9415
     Shape of augmentation charge: PSQ
     Using radial grid of 1135 points,  4 beta functions with: 
                l(1) =   0
                l(2) =   0
                l(3) =   1
                l(4) =   1
     Q(r) pseudized with 0 coefficients 


     atomic species   valence    mass     pseudopotential
        Fe            16.00    55.84500     Fe( 1.00)
        Al             3.00    26.98100     Al( 1.00)

      8 Sym. Ops., with inversion, found ( 6 have fractional translation)



   Cartesian axes

     site n.     atom                  positions (alat units)
         1           Fe  tau(   1) = (   0.7500000   1.2750000   1.5877123  )
         2           Fe  tau(   2) = (   0.2500000   0.4250000   0.1443375  )
         3           Al  tau(   3) = (   0.2500000   1.2750000   0.7216874  )
         4           Al  tau(   4) = (   0.7500000   0.4250000   1.0103624  )

     number of k points=    36  Marzari-Vanderbilt smearing, width (Ry)=  0.0050
                       cart. coord. in units 2pi/alat
        k(    1) = (   0.0000000   0.0000000   0.0000000), wk =   0.0208333
        k(    2) = (   0.0000000   0.0000000   0.1443377), wk =   0.0416667
        k(    3) = (   0.0000000   0.0000000  -0.2886753), wk =   0.0208333
        k(    4) = (   0.0000000   0.1470588   0.0000000), wk =   0.0416667
        k(    5) = (   0.0000000   0.1470588   0.1443377), wk =   0.0833333
        k(    6) = (   0.0000000   0.1470588  -0.2886753), wk =   0.0416667
        k(    7) = (   0.0000000  -0.2941176   0.0000000), wk =   0.0208333
        k(    8) = (   0.0000000  -0.2941176   0.1443377), wk =   0.0416667
        k(    9) = (   0.0000000  -0.2941176  -0.2886753), wk =   0.0208333
        k(   10) = (   0.1666667   0.0000000   0.0000000), wk =   0.0416667
        k(   11) = (   0.1666667   0.0000000   0.1443377), wk =   0.0833333
        k(   12) = (   0.1666667   0.0000000  -0.2886753), wk =   0.0416667
        k(   13) = (   0.1666667   0.1470588   0.0000000), wk =   0.0833333
        k(   14) = (   0.1666667   0.1470588   0.1443377), wk =   0.1666667
        k(   15) = (   0.1666667   0.1470588  -0.2886753), wk =   0.0833333
        k(   16) = (   0.1666667  -0.2941176   0.0000000), wk =   0.0416667
        k(   17) = (   0.1666667  -0.2941176   0.1443377), wk =   0.0833333
        k(   18) = (   0.1666667  -0.2941176  -0.2886753), wk =   0.0416667
        k(   19) = (   0.3333333   0.0000000   0.0000000), wk =   0.0416667
        k(   20) = (   0.3333333   0.0000000   0.1443377), wk =   0.0833333
        k(   21) = (   0.3333333   0.0000000  -0.2886753), wk =   0.0416667
        k(   22) = (   0.3333333   0.1470588   0.0000000), wk =   0.0833333
        k(   23) = (   0.3333333   0.1470588   0.1443377), wk =   0.1666667
        k(   24) = (   0.3333333   0.1470588  -0.2886753), wk =   0.0833333
        k(   25) = (   0.3333333  -0.2941176   0.0000000), wk =   0.0416667
        k(   26) = (   0.3333333  -0.2941176   0.1443377), wk =   0.0833333
        k(   27) = (   0.3333333  -0.2941176  -0.2886753), wk =   0.0416667
        k(   28) = (  -0.5000000   0.0000000   0.0000000), wk =   0.0208333
        k(   29) = (  -0.5000000   0.0000000   0.1443377), wk =   0.0416667
        k(   30) = (  -0.5000000   0.0000000  -0.2886753), wk =   0.0208333
        k(   31) = (  -0.5000000   0.1470588   0.0000000), wk =   0.0416667
        k(   32) = (  -0.5000000   0.1470588   0.1443377), wk =   0.0833333
        k(   33) = (  -0.5000000   0.1470588  -0.2886753), wk =   0.0416667
        k(   34) = (  -0.5000000  -0.2941176   0.0000000), wk =   0.0208333
        k(   35) = (  -0.5000000  -0.2941176   0.1443377), wk =   0.0416667
        k(   36) = (  -0.5000000  -0.2941176  -0.2886753), wk =   0.0208333

     Dense  grid:   105711 G-vectors     FFT dimensions: (  48,  72,  72)

     Smooth grid:    26663 G-vectors     FFT dimensions: (  30,  48,  45)

     Estimated max dynamical RAM per process >     220.22 MB

     Estimated total dynamical RAM >     440.44 MB

     Check: negative core charge=   -0.000012

     Initial potential from superposition of free atoms

     starting charge   37.99454, renormalised to   38.00000
     Starting wfcs are   34 randomized atomic wfcs
     Checking if some PAW data can be deallocated... 

     total cpu time spent up to now is        6.0 secs

     Self-consistent Calculation

     iteration #  1     ecut=    70.00 Ry     beta= 0.70
     Davidson diagonalization with overlap
     ethr =  1.00E-02,  avg # of iterations =  2.8

     Threshold (ethr) on eigenvalues was too large:
     Diagonalizing with lowered threshold

     Davidson diagonalization with overlap
     ethr =  4.76E-04,  avg # of iterations =  3.7

     total cpu time spent up to now is       15.4 secs

     total energy              =    -737.43561677 Ry
     Harris-Foulkes estimate   =    -737.58098160 Ry
     estimated scf accuracy    <       0.19128764 Ry

     iteration #  2     ecut=    70.00 Ry     beta= 0.70
     Davidson diagonalization with overlap
     ethr =  5.03E-04,  avg # of iterations =  3.8

     total cpu time spent up to now is       22.1 secs

     total energy              =    -737.20467793 Ry
     Harris-Foulkes estimate   =    -737.86486112 Ry
     estimated scf accuracy    <       3.02004693 Ry

     iteration #  3     ecut=    70.00 Ry     beta= 0.70
     Davidson diagonalization with overlap
     ethr =  5.03E-04,  avg # of iterations =  3.6

     total cpu time spent up to now is       28.4 secs

     total energy              =    -737.53355681 Ry
     Harris-Foulkes estimate   =    -737.54755030 Ry
     estimated scf accuracy    <       0.04955212 Ry

     iteration #  4     ecut=    70.00 Ry     beta= 0.70
     Davidson diagonalization with overlap
     ethr =  1.30E-04,  avg # of iterations =  2.1

     total cpu time spent up to now is       33.4 secs

     total energy              =    -737.54095662 Ry
     Harris-Foulkes estimate   =    -737.54130669 Ry
     estimated scf accuracy    <       0.00096852 Ry

     iteration #  5     ecut=    70.00 Ry     beta= 0.70
     Davidson diagonalization with overlap
     ethr =  2.55E-06,  avg # of iterations =  3.7

     total cpu time spent up to now is       40.7 secs

     total energy              =    -737.54155373 Ry
     Harris-Foulkes estimate   =    -737.54157838 Ry
     estimated scf accuracy    <       0.00005688 Ry

     iteration #  6     ecut=    70.00 Ry     beta= 0.70
     Davidson diagonalization with overlap
     ethr =  1.50E-07,  avg # of iterations =  2.1

     total cpu time spent up to now is       45.3 secs

     total energy              =    -737.54156050 Ry
     Harris-Foulkes estimate   =    -737.54156236 Ry
     estimated scf accuracy    <       0.00000462 Ry

     iteration #  7     ecut=    70.00 Ry     beta= 0.70
     Davidson diagonalization with overlap
     ethr =  1.21E-08,  avg # of iterations =  3.4

     total cpu time spent up to now is       51.4 secs

     total energy              =    -737.54156219 Ry
     Harris-Foulkes estimate   =    -737.54156264 Ry
     estimated scf accuracy    <       0.00000107 Ry

     iteration #  8     ecut=    70.00 Ry     beta= 0.70
     Davidson diagonalization with overlap
     ethr =  2.81E-09,  avg # of iterations =  2.0

     total cpu time spent up to now is       55.8 secs

     total energy              =    -737.54156235 Ry
     Harris-Foulkes estimate   =    -737.54156238 Ry
     estimated scf accuracy    <       0.00000006 Ry

     iteration #  9     ecut=    70.00 Ry     beta= 0.70
     Davidson diagonalization with overlap
     ethr =  1.54E-10,  avg # of iterations =  3.3

     total cpu time spent up to now is       61.1 secs

     End of self-consistent calculation

          k = 0.0000 0.0000 0.0000 (  3323 PWs)   bands (ev):

   -73.3348 -73.3069 -39.5604 -39.3905 -39.3794 -39.3455 -39.2368 -39.2327
     2.5894   8.6028   9.6440   9.6827  10.2036  11.2331  11.4672  12.0878
    12.5819  12.6205  13.2457  13.3829  14.0610  14.1478  15.3623

          k = 0.0000 0.0000 0.1443 (  3340 PWs)   bands (ev):

   -73.3348 -73.3069 -39.5604 -39.3907 -39.3796 -39.3457 -39.2369 -39.2333
     2.9957   7.3068   9.2790   9.4167  10.9431  11.5252  12.0137  12.1800
    12.5796  12.6263  13.2173  13.3927  13.7599  14.0573  16.6648

          k = 0.0000 0.0000-0.2887 (  3334 PWs)   bands (ev):

   -73.3348 -73.3069 -39.5601 -39.3909 -39.3794 -39.3457 -39.2372 -39.2334
     3.6461   5.9465   9.0247   9.8761  11.2742  11.5423  11.7313  12.5580
    12.6322  12.9792  13.1921  13.3996  13.7297  14.0535  14.6093

          k = 0.0000 0.1471 0.0000 (  3336 PWs)   bands (ev):

   -73.3307 -73.3110 -39.5363 -39.4104 -39.3838 -39.3525 -39.2340 -39.2295
     3.0760   6.6602   9.8990   9.9904  10.5962  11.1637  11.9687  12.3957
    12.5995  12.7287  13.2767  13.3482  13.9105  13.9632  16.6885

          k = 0.0000 0.1471 0.1443 (  3339 PWs)   bands (ev):

   -73.3307 -73.3110 -39.5363 -39.4103 -39.3841 -39.3523 -39.2341 -39.2299
     3.4691   6.9010   7.9112   9.9858  11.1615  11.2571  11.9038  12.2014
    12.7267  12.9079  13.2745  13.3342  13.8688  13.9160  16.5797

          k = 0.0000 0.1471-0.2887 (  3378 PWs)   bands (ev):

   -73.3307 -73.3110 -39.5365 -39.4106 -39.3845 -39.3526 -39.2347 -39.2306
     4.0849   6.4266   7.4283   9.4769  11.4026  11.4582  11.7880  11.9182
    12.7244  13.2723  13.3209  13.3291  13.3981  13.9210  16.3002

          k = 0.0000-0.2941 0.0000 (  3366 PWs)   bands (ev):

   -73.3209 -73.3209 -39.4763 -39.4763 -39.3684 -39.3684 -39.2295 -39.2295
     4.4902   4.4902  10.1276  10.1276  11.0411  11.0411  12.0600  12.0600
    13.0030  13.0030  13.3592  13.3592  13.6068  13.6068  16.4150

          k = 0.0000-0.2941 0.1443 (  3360 PWs)   bands (ev):

   -73.3209 -73.3209 -39.4762 -39.4762 -39.3684 -39.3684 -39.2297 -39.2297
     4.8437   4.8437   8.9948   8.9948  11.2425  11.2425  11.7660  11.7660
    12.9916  12.9916  13.4871  13.4871  13.6135  13.6135  18.1429

          k = 0.0000-0.2941-0.2887 (  3348 PWs)   bands (ev):

   -73.3209 -73.3209 -39.4760 -39.4760 -39.3683 -39.3683 -39.2299 -39.2299
     5.3656   5.3656   7.9155   7.9155  11.3657  11.3657  11.5850  11.5850
    12.9806  12.9806  13.5634  13.5634  13.6199  13.6199  20.0394

          k = 0.1667 0.0000 0.0000 (  3347 PWs)   bands (ev):

   -73.3280 -73.3038 -39.5438 -39.4346 -39.3960 -39.3874 -39.2313 -39.2277
     3.2167   8.9935  10.0498  10.0554  10.6370  11.3129  11.3964  12.2241
    12.2420  12.4830  13.0423  13.7217  14.2791  14.5205  15.4447

          k = 0.1667 0.0000 0.1443 (  3338 PWs)   bands (ev):

   -73.3280 -73.3038 -39.5438 -39.4345 -39.3959 -39.3871 -39.2312 -39.2279
     3.6050   7.8369   9.6699   9.9412  11.2307  11.4243  11.8425  12.1898
    12.3368  12.6405  13.0125  13.1803  14.2085  14.3546  17.0859

          k = 0.1667 0.0000-0.2887 (  3342 PWs)   bands (ev):

   -73.3280 -73.3038 -39.5437 -39.4345 -39.3959 -39.3872 -39.2317 -39.2281
     4.2095   6.5923   9.4289  10.3134  11.3468  11.7394  11.9997  12.1130
    12.4017  12.9241  13.1250  13.1431  13.1934  14.7706  15.6677

          k = 0.1667 0.1471 0.0000 (  3343 PWs)   bands (ev):

   -73.3245 -73.3074 -39.5274 -39.4305 -39.4242 -39.3836 -39.2290 -39.2261
     3.6945   7.2078  10.1641  10.3478  10.9378  11.1735  12.0510  12.0678
    12.4175  12.5202  13.3183  13.4048  14.4186  14.4453  16.8377

          k = 0.1667 0.1471 0.1443 (  3349 PWs)   bands (ev):

   -73.3245 -73.3074 -39.5274 -39.4306 -39.4242 -39.3838 -39.2293 -39.2261
     4.0699   7.4171   8.4691  10.4342  11.2106  11.3858  11.8559  12.0627
    12.3765  12.8655  13.1682  13.3236  13.7140  14.7303  16.7815

          k = 0.1667 0.1471-0.2887 (  3358 PWs)   bands (ev):

   -73.3245 -73.3074 -39.5276 -39.4306 -39.4242 -39.3837 -39.2295 -39.2265
     4.6433   7.0328   7.9555  10.0212  11.4831  11.5799  11.6695  12.0545
    12.3308  12.9315  12.9724  13.3688  13.5003  14.4382  16.5967

          k = 0.1667-0.2941 0.0000 (  3362 PWs)   bands (ev):

   -73.3159 -73.3159 -39.4838 -39.4838 -39.4012 -39.4012 -39.2260 -39.2260
     5.0836   5.0836  10.5030  10.5030  11.2678  11.2678  11.6508  11.6508
    12.7847  12.7847  13.3371  13.3371  14.4398  14.4398  16.6237

          k = 0.1667-0.2941 0.1443 (  3340 PWs)   bands (ev):

   -73.3159 -73.3159 -39.4836 -39.4836 -39.4011 -39.4011 -39.2258 -39.2258
     5.4195   5.4195   9.4904   9.4904  11.4450  11.4450  11.6522  11.6522
    12.7113  12.7113  13.4374  13.4374  13.8035  13.8035  18.6863

          k = 0.1667-0.2941-0.2887 (  3352 PWs)   bands (ev):

   -73.3159 -73.3159 -39.4837 -39.4837 -39.4011 -39.4011 -39.2262 -39.2262
     5.9031   5.9031   8.5128   8.5128  11.5201  11.5201  11.6615  11.6615
    12.6269  12.6269  13.3501  13.3501  13.7360  13.7360  20.0039

          k = 0.3333 0.0000 0.0000 (  3357 PWs)   bands (ev):

   -73.3130 -73.2990 -39.5192 -39.5018 -39.4969 -39.4114 -39.2204 -39.2184
     5.0350   9.6920  10.4330  10.6707  10.7253  11.1991  11.5589  12.1296
    12.4497  12.5108  13.6043  14.6302  14.8131  15.1588  15.3310

          k = 0.3333 0.0000 0.1443 (  3334 PWs)   bands (ev):

   -73.3130 -73.2990 -39.5190 -39.5018 -39.4967 -39.4111 -39.2202 -39.2182
     5.3665   9.1239  10.5042  10.5157  10.9782  11.2255  11.4670  12.1297
    12.4028  12.8183  13.1754  13.6095  14.2815  14.9954  16.4436

          k = 0.3333 0.0000-0.2887 (  3336 PWs)   bands (ev):

   -73.3130 -73.2990 -39.5189 -39.5018 -39.4967 -39.4112 -39.2203 -39.2182
     5.8407   8.3439  10.3615  10.6926  10.9834  11.2255  12.0703  12.0728
    12.1368  12.8435  13.0816  13.2350  13.6616  15.3183  17.5014

          k = 0.3333 0.1471 0.0000 (  3341 PWs)   bands (ev):

   -73.3109 -73.3010 -39.5413 -39.5155 -39.4632 -39.4091 -39.2197 -39.2186
     5.4795   8.6424  10.2970  10.6117  11.0849  11.4466  11.6147  11.7116
    12.5138  12.7273  13.5911  13.8818  15.0721  15.4421  15.5480

          k = 0.3333 0.1471 0.1443 (  3341 PWs)   bands (ev):

   -73.3109 -73.3010 -39.5413 -39.5154 -39.4631 -39.4092 -39.2198 -39.2185
     5.8011   8.7770   9.7544  10.6319  10.9930  11.3572  11.6975  11.9062
    12.6423  12.7612  13.2021  13.5873  13.7732  14.9058  16.8588

          k = 0.3333 0.1471-0.2887 (  3324 PWs)   bands (ev):

   -73.3109 -73.3010 -39.5412 -39.5151 -39.4630 -39.4090 -39.2197 -39.2186
     6.2553   8.5662   9.4625  10.7950  11.0091  11.1681  11.8701  12.0326
    12.0884  12.5621  13.1389  13.3335  13.6155  15.4133  15.9462

          k = 0.3333-0.2941 0.0000 (  3350 PWs)   bands (ev):

   -73.3060 -73.3060 -39.5407 -39.5407 -39.4242 -39.4242 -39.2190 -39.2190
     6.7629   6.7629  10.7742  10.7742  11.1020  11.1020  11.8012  11.8012
    12.6051  12.6051  13.3997  13.3997  15.5069  15.5069  16.3378

          k = 0.3333-0.2941 0.1443 (  3336 PWs)   bands (ev):

   -73.3060 -73.3060 -39.5405 -39.5405 -39.4241 -39.4241 -39.2189 -39.2189
     7.0505   7.0505  10.2697  10.2697  11.3327  11.3327  11.8597  11.8597
    12.6077  12.6077  13.2454  13.2454  14.1140  14.1140  16.8296

          k = 0.3333-0.2941-0.2887 (  3332 PWs)   bands (ev):

   -73.3060 -73.3060 -39.5404 -39.5404 -39.4241 -39.4241 -39.2191 -39.2191
     7.4319   7.4319   9.8415   9.8415  11.3456  11.3456  11.9588  11.9588
    12.1595  12.1595  13.2318  13.2318  13.9197  13.9197  16.8493

          k =-0.5000 0.0000 0.0000 (  3300 PWs)   bands (ev):

   -73.3010 -73.3010 -39.5532 -39.5532 -39.4518 -39.4518 -39.2140 -39.2140
     7.8075   7.8075  10.2121  10.2121  10.9277  10.9277  12.3457  12.3457
    12.5991  12.5991  14.3855  14.3855  16.4388  16.4422  16.4422

          k =-0.5000 0.0000 0.1443 (  3308 PWs)   bands (ev):

   -73.3010 -73.3010 -39.5533 -39.5533 -39.4518 -39.4518 -39.2141 -39.2141
     8.0306   8.0306  10.2642  10.2642  10.8888  10.8888  12.3272  12.3272
    12.6257  12.6257  13.6586  13.6586  15.3060  15.3060  16.5938

          k =-0.5000 0.0000-0.2887 (  3292 PWs)   bands (ev):

   -73.3010 -73.3010 -39.5532 -39.5532 -39.4519 -39.4519 -39.2137 -39.2137
     8.2783   8.2783  10.5052  10.5052  10.8516  10.8516  11.8463  11.8463
    12.6506  12.6506  13.0418  13.0418  15.2849  15.2849  16.7648

          k =-0.5000 0.1471 0.0000 (  3330 PWs)   bands (ev):

   -73.3010 -73.3010 -39.5688 -39.5688 -39.4360 -39.4360 -39.2149 -39.2149
     8.1094   8.1094  10.3742  10.3742  10.8801  10.8801  11.8032  11.8032
    12.3832  12.3832  14.2767  14.2767  14.9815  14.9815  17.0529

          k =-0.5000 0.1471 0.1443 (  3326 PWs)   bands (ev):

   -73.3010 -73.3010 -39.5688 -39.5688 -39.4359 -39.4359 -39.2150 -39.2150
     8.3655   8.3655  10.0654  10.0654  11.2688  11.2688  11.7514  11.7514
    12.6643  12.6643  13.4934  13.4934  14.5647  14.5647  16.6087

          k =-0.5000 0.1471-0.2887 (  3304 PWs)   bands (ev):

   -73.3010 -73.3010 -39.5686 -39.5686 -39.4358 -39.4358 -39.2147 -39.2147
     8.6351   8.6351  10.1039  10.1039  11.3965  11.3965  11.6258  11.6258
    12.3908  12.3908  13.0925  13.0925  14.9209  14.9209  15.8402

          k =-0.5000-0.2941 0.0000 (  3324 PWs)   bands (ev):

   -73.3010 -73.3010 -39.5811 -39.5811 -39.4230 -39.4230 -39.2154 -39.2154
     8.5615   8.5615  10.4187  10.4187  10.6861  10.6861  11.2346  11.2346
    12.5616  12.5616  13.6578  13.6578  14.7654  14.7654  17.6929

          k =-0.5000-0.2941 0.1443 (  3316 PWs)   bands (ev):

   -73.3010 -73.3010 -39.5810 -39.5810 -39.4229 -39.4229 -39.2154 -39.2154
     8.9791   8.9791   9.6478   9.6478  11.1246  11.1246  11.8238  11.8238
    12.6531  12.6531  13.0927  13.0927  14.2309  14.2309  17.0749

          k =-0.5000-0.2941-0.2887 (  3376 PWs)   bands (ev):

   -73.3010 -73.3010 -39.5816 -39.5816 -39.4234 -39.4234 -39.2159 -39.2159
     9.3389   9.3389   9.7548   9.7548  10.6395  10.6395  12.2573  12.2573
    12.3518  12.3518  13.3534  13.3534  14.0885  14.0885  15.4798

     the Fermi energy is    13.3284 ev

!    total energy              =    -737.54156237 Ry
     Harris-Foulkes estimate   =    -737.54156237 Ry
     estimated scf accuracy    <          3.3E-09 Ry

     total all-electron energy =     -6062.420197 Ry

     The total energy is the sum of the following terms:

     one-electron contribution =    -361.33376257 Ry
     hartree contribution      =     200.56292431 Ry
     xc contribution           =     -75.68904254 Ry
     ewald contribution        =    -280.26959494 Ry
     one-center paw contrib.   =    -220.81190535 Ry
     smearing contrib. (-TS)   =      -0.00018129 Ry

     convergence has been achieved in   9 iterations

     Forces acting on atoms (cartesian axes, Ry/au):

     atom    1 type  1   force =     0.00000000    0.00000000   -0.00333085
     atom    2 type  1   force =     0.00000000    0.00000000    0.00333085
     atom    3 type  2   force =     0.00000000    0.00000000   -0.01983487
     atom    4 type  2   force =     0.00000000    0.00000000    0.01983487

     Total force =     0.028444     Total SCF correction =     0.000149


     Computing stress (Cartesian axis) and pressure

          total   stress  (Ry/bohr**3)                   (kbar)     P=      -47.30
   0.00058596   0.00000000   0.00000000           86.20        0.00        0.00
   0.00000000  -0.00057230   0.00000000            0.00      -84.19        0.00
   0.00000000   0.00000000  -0.00097829            0.00        0.00     -143.91


     Writing output data file ./basic.save/

     init_run     :      4.58s CPU      4.88s WALL (       1 calls)
     electrons    :     52.13s CPU     55.07s WALL (       1 calls)
     forces       :      2.12s CPU      2.21s WALL (       1 calls)
     stress       :      4.33s CPU      4.50s WALL (       1 calls)

     Called by init_run:
     wfcinit      :      1.95s CPU      2.00s WALL (       1 calls)
     potinit      :      0.96s CPU      1.03s WALL (       1 calls)
     hinit0       :      1.42s CPU      1.51s WALL (       1 calls)

     Called by electrons:
     c_bands      :     39.15s CPU     40.68s WALL (      10 calls)
     sum_band     :      7.03s CPU      7.89s WALL (      10 calls)
     v_of_rho     :      0.91s CPU      0.95s WALL (      10 calls)
     newd         :      2.12s CPU      2.60s WALL (      10 calls)
     PAW_pot      :      3.40s CPU      3.49s WALL (      10 calls)
     mix_rho      :      0.07s CPU      0.07s WALL (      10 calls)

     Called by c_bands:
     init_us_2    :      0.59s CPU      0.61s WALL (     828 calls)
     cegterg      :     37.91s CPU     39.40s WALL (     360 calls)

     Called by sum_band:
     sum_band:bec :      0.01s CPU      0.02s WALL (     360 calls)
     addusdens    :      2.20s CPU      2.79s WALL (      10 calls)

     Called by *egterg:
     h_psi        :     23.31s CPU     24.36s WALL (    1492 calls)
     s_psi        :      3.23s CPU      3.34s WALL (    1492 calls)
     g_psi        :      0.10s CPU      0.10s WALL (    1096 calls)
     cdiaghg      :      1.83s CPU      1.87s WALL (    1420 calls)

     Called by h_psi:
     h_psi:calbec :      3.86s CPU      4.04s WALL (    1492 calls)
     vloc_psi     :     16.09s CPU     16.84s WALL (    1492 calls)
     add_vuspsi   :      3.20s CPU      3.32s WALL (    1492 calls)

     General routines
     calbec       :      5.78s CPU      6.07s WALL (    2032 calls)
     fft          :      0.37s CPU      0.40s WALL (     154 calls)
     ffts         :      0.01s CPU      0.01s WALL (      20 calls)
     fftw         :     16.62s CPU     17.43s WALL (   55914 calls)
     interpolate  :      0.04s CPU      0.04s WALL (      10 calls)

     Parallel routines
     fft_scatt_xy :      2.43s CPU      2.54s WALL (   56088 calls)
     fft_scatt_yz :      3.22s CPU      3.45s WALL (   56088 calls)

     PWSCF        :   1m 4.23s CPU   1m 8.02s WALL


   This run was terminated on:   0:26: 9  13Aug2020            

=------------------------------------------------------------------------------=
   JOB DONE.
=------------------------------------------------------------------------------=
