
     Program PWSCF v.6.5 starts on 12Aug2020 at  0: 1:49 

     This program is part of the open-source Quantum ESPRESSO suite
     for quantum simulation of materials; please cite
         "P. Giannozzi et al., J. Phys.:Condens. Matter 21 395502 (2009);
         "P. Giannozzi et al., J. Phys.:Condens. Matter 29 465901 (2017);
          URL http://www.quantum-espresso.org", 
     in publications or presentations arising from this work. More details at
     http://www.quantum-espresso.org/quote

     Parallel version (MPI), running on     2 processors

     MPI processes distributed on     1 nodes
     R & G space division:  proc/nbgrp/npool/nimage =       2
     Reading input from FeAl.in

     Current dimensions of program PWSCF are:
     Max number of different atomic species (ntypx) = 10
     Max number of k-points (npk) =  40000
     Max angular momentum in pseudopotentials (lmaxx) =  3

     IMPORTANT: XC functional enforced from input :
     Exchange-correlation= PBE
                           (   1   4   3   4   0   0   0)
     Any further DFT definition will be discarded
     Please, verify this is what you really want

               file Fe.pbe-spn-kjpaw_psl.0.2.1.UPF: wavefunction(s)  3D renormalized
               file Al.pbe-n-kjpaw_psl.0.1.UPF: wavefunction(s)  3S renormalized

     Subspace diagonalization in iterative solution of the eigenvalue problem:
     a serial algorithm will be used

     Message from routine setup:
     using ibrav=0 with symmetry is DISCOURAGED, use correct ibrav instead

     Parallelization info
     --------------------
     sticks:   dense  smooth     PW     G-vecs:    dense   smooth      PW
     Min        1194     475    147                59155    14927    2463
     Max        1195     476    148                59156    14930    2464
     Sum        2389     951    295               118311    29857    4927



     bravais-lattice index     =            0
     lattice parameter (alat)  =       5.1138  a.u.
     unit-cell volume          =     378.2419 (a.u.)^3
     number of atoms/cell      =            4
     number of atomic types    =            2
     number of electrons       =        38.00
     number of Kohn-Sham states=           23
     kinetic-energy cutoff     =      70.0000  Ry
     charge density cutoff     =     700.0000  Ry
     convergence threshold     =      1.0E-08
     mixing beta               =       0.7000
     number of iterations used =            8  plain     mixing
     Exchange-correlation= PBE
                           (   1   4   3   4   0   0   0)

     celldm(1)=   5.113788  celldm(2)=   0.000000  celldm(3)=   0.000000
     celldm(4)=   0.000000  celldm(5)=   0.000000  celldm(6)=   0.000000

     crystal axes: (cart. coord. in units of alat)
               a(1) = (   1.000000   0.000000   0.000000 )  
               a(2) = (   0.000000   1.632981   0.000000 )  
               a(3) = (   0.000000   0.000000   1.732050 )  

     reciprocal axes: (cart. coord. in units 2 pi/alat)
               b(1) = (  1.000000  0.000000  0.000000 )  
               b(2) = (  0.000000  0.612377  0.000000 )  
               b(3) = (  0.000000  0.000000  0.577351 )  


     PseudoPot. # 1 for Fe read from file:
     ./Fe.pbe-spn-kjpaw_psl.0.2.1.UPF
     MD5 check sum: 4338034a7fd945be4bb7db5fd3b2d142
     Pseudo is Projector augmented-wave + core cor, Zval = 16.0
     Generated using "atomic" code by A. Dal Corso v.5.0.2 svn rev. 9415
     Shape of augmentation charge: PSQ
     Using radial grid of 1191 points,  6 beta functions with: 
                l(1) =   0
                l(2) =   0
                l(3) =   1
                l(4) =   1
                l(5) =   2
                l(6) =   2
     Q(r) pseudized with 0 coefficients 


     PseudoPot. # 2 for Al read from file:
     ./Al.pbe-n-kjpaw_psl.0.1.UPF
     MD5 check sum: 9111391c6252b599ac5002cf021b5091
     Pseudo is Projector augmented-wave + core cor, Zval =  3.0
     Generated using "atomic" code by A. Dal Corso v.5.0.2 svn rev. 9415
     Shape of augmentation charge: PSQ
     Using radial grid of 1135 points,  4 beta functions with: 
                l(1) =   0
                l(2) =   0
                l(3) =   1
                l(4) =   1
     Q(r) pseudized with 0 coefficients 


     atomic species   valence    mass     pseudopotential
        Fe            16.00    55.84500     Fe( 1.00)
        Al             3.00    26.98100     Al( 1.00)

      8 Sym. Ops., with inversion, found ( 6 have fractional translation)



   Cartesian axes

     site n.     atom                  positions (alat units)
         1           Fe  tau(   1) = (   0.7500000   1.2247358   1.5877123  )
         2           Fe  tau(   2) = (   0.2500000   0.4082453   0.1443375  )
         3           Al  tau(   3) = (   0.2500000   1.2247358   0.7216874  )
         4           Al  tau(   4) = (   0.7500000   0.4082453   1.0103624  )

     number of k points=    36  Marzari-Vanderbilt smearing, width (Ry)=  0.0050
                       cart. coord. in units 2pi/alat
        k(    1) = (   0.0000000   0.0000000   0.0000000), wk =   0.0208333
        k(    2) = (   0.0000000   0.0000000   0.1443377), wk =   0.0416667
        k(    3) = (   0.0000000   0.0000000  -0.2886753), wk =   0.0208333
        k(    4) = (   0.0000000   0.1530942   0.0000000), wk =   0.0416667
        k(    5) = (   0.0000000   0.1530942   0.1443377), wk =   0.0833333
        k(    6) = (   0.0000000   0.1530942  -0.2886753), wk =   0.0416667
        k(    7) = (   0.0000000  -0.3061885   0.0000000), wk =   0.0208333
        k(    8) = (   0.0000000  -0.3061885   0.1443377), wk =   0.0416667
        k(    9) = (   0.0000000  -0.3061885  -0.2886753), wk =   0.0208333
        k(   10) = (   0.1666667   0.0000000   0.0000000), wk =   0.0416667
        k(   11) = (   0.1666667   0.0000000   0.1443377), wk =   0.0833333
        k(   12) = (   0.1666667   0.0000000  -0.2886753), wk =   0.0416667
        k(   13) = (   0.1666667   0.1530942   0.0000000), wk =   0.0833333
        k(   14) = (   0.1666667   0.1530942   0.1443377), wk =   0.1666667
        k(   15) = (   0.1666667   0.1530942  -0.2886753), wk =   0.0833333
        k(   16) = (   0.1666667  -0.3061885   0.0000000), wk =   0.0416667
        k(   17) = (   0.1666667  -0.3061885   0.1443377), wk =   0.0833333
        k(   18) = (   0.1666667  -0.3061885  -0.2886753), wk =   0.0416667
        k(   19) = (   0.3333333   0.0000000   0.0000000), wk =   0.0416667
        k(   20) = (   0.3333333   0.0000000   0.1443377), wk =   0.0833333
        k(   21) = (   0.3333333   0.0000000  -0.2886753), wk =   0.0416667
        k(   22) = (   0.3333333   0.1530942   0.0000000), wk =   0.0833333
        k(   23) = (   0.3333333   0.1530942   0.1443377), wk =   0.1666667
        k(   24) = (   0.3333333   0.1530942  -0.2886753), wk =   0.0833333
        k(   25) = (   0.3333333  -0.3061885   0.0000000), wk =   0.0416667
        k(   26) = (   0.3333333  -0.3061885   0.1443377), wk =   0.0833333
        k(   27) = (   0.3333333  -0.3061885  -0.2886753), wk =   0.0416667
        k(   28) = (  -0.5000000   0.0000000   0.0000000), wk =   0.0208333
        k(   29) = (  -0.5000000   0.0000000   0.1443377), wk =   0.0416667
        k(   30) = (  -0.5000000   0.0000000  -0.2886753), wk =   0.0208333
        k(   31) = (  -0.5000000   0.1530942   0.0000000), wk =   0.0416667
        k(   32) = (  -0.5000000   0.1530942   0.1443377), wk =   0.0833333
        k(   33) = (  -0.5000000   0.1530942  -0.2886753), wk =   0.0416667
        k(   34) = (  -0.5000000  -0.3061885   0.0000000), wk =   0.0208333
        k(   35) = (  -0.5000000  -0.3061885   0.1443377), wk =   0.0416667
        k(   36) = (  -0.5000000  -0.3061885  -0.2886753), wk =   0.0208333

     Dense  grid:   118311 G-vectors     FFT dimensions: (  48,  72,  75)

     Smooth grid:    29857 G-vectors     FFT dimensions: (  30,  48,  48)

     Estimated max dynamical RAM per process >     245.74 MB

     Estimated total dynamical RAM >     491.47 MB

     Check: negative core charge=   -0.000012

     Initial potential from superposition of free atoms

     starting charge   37.99454, renormalised to   38.00000
     Starting wfcs are   34 randomized atomic wfcs
     Checking if some PAW data can be deallocated... 

     total cpu time spent up to now is        6.4 secs

     Self-consistent Calculation

     iteration #  1     ecut=    70.00 Ry     beta= 0.70
     Davidson diagonalization with overlap
     ethr =  1.00E-02,  avg # of iterations =  2.7

     Threshold (ethr) on eigenvalues was too large:
     Diagonalizing with lowered threshold

     Davidson diagonalization with overlap
     ethr =  8.17E-04,  avg # of iterations =  3.2

     total cpu time spent up to now is       16.4 secs

     total energy              =    -737.30345327 Ry
     Harris-Foulkes estimate   =    -737.55657549 Ry
     estimated scf accuracy    <       0.31303185 Ry

     iteration #  2     ecut=    70.00 Ry     beta= 0.70
     Davidson diagonalization with overlap
     ethr =  8.24E-04,  avg # of iterations =  4.2

     total cpu time spent up to now is       23.7 secs

     total energy              =    -736.75035649 Ry
     Harris-Foulkes estimate   =    -738.31942021 Ry
     estimated scf accuracy    <       8.20915588 Ry

     iteration #  3     ecut=    70.00 Ry     beta= 0.70
     Davidson diagonalization with overlap
     ethr =  8.24E-04,  avg # of iterations =  4.2

     total cpu time spent up to now is       30.6 secs

     total energy              =    -737.50592504 Ry
     Harris-Foulkes estimate   =    -737.51276447 Ry
     estimated scf accuracy    <       0.02162694 Ry

     iteration #  4     ecut=    70.00 Ry     beta= 0.70
     Davidson diagonalization with overlap
     ethr =  5.69E-05,  avg # of iterations =  2.8

     total cpu time spent up to now is       36.5 secs

     total energy              =    -737.51159805 Ry
     Harris-Foulkes estimate   =    -737.51203762 Ry
     estimated scf accuracy    <       0.00114045 Ry

     iteration #  5     ecut=    70.00 Ry     beta= 0.70
     Davidson diagonalization with overlap
     ethr =  3.00E-06,  avg # of iterations =  3.8

     total cpu time spent up to now is       43.2 secs

     total energy              =    -737.51202297 Ry
     Harris-Foulkes estimate   =    -737.51204585 Ry
     estimated scf accuracy    <       0.00004931 Ry

     iteration #  6     ecut=    70.00 Ry     beta= 0.70
     Davidson diagonalization with overlap
     ethr =  1.30E-07,  avg # of iterations =  3.2

     total cpu time spent up to now is       49.6 secs

     total energy              =    -737.51203962 Ry
     Harris-Foulkes estimate   =    -737.51204227 Ry
     estimated scf accuracy    <       0.00000622 Ry

     iteration #  7     ecut=    70.00 Ry     beta= 0.70
     Davidson diagonalization with overlap
     ethr =  1.64E-08,  avg # of iterations =  2.8

     total cpu time spent up to now is       54.9 secs

     total energy              =    -737.51204114 Ry
     Harris-Foulkes estimate   =    -737.51204157 Ry
     estimated scf accuracy    <       0.00000104 Ry

     iteration #  8     ecut=    70.00 Ry     beta= 0.70
     Davidson diagonalization with overlap
     ethr =  2.75E-09,  avg # of iterations =  2.8

     total cpu time spent up to now is       60.4 secs

     total energy              =    -737.51204142 Ry
     Harris-Foulkes estimate   =    -737.51204144 Ry
     estimated scf accuracy    <       0.00000004 Ry

     iteration #  9     ecut=    70.00 Ry     beta= 0.70
     Davidson diagonalization with overlap
     ethr =  1.16E-10,  avg # of iterations =  3.8

     total cpu time spent up to now is       67.0 secs

     End of self-consistent calculation

          k = 0.0000 0.0000 0.0000 (  3693 PWs)   bands (ev):

   -74.9986 -74.9785 -41.2057 -41.0713 -41.0632 -41.0251 -40.9161 -40.9150
     1.5197   7.3527   8.1447   8.4765   8.8188   9.8529   9.9932  10.6672
    10.8732  10.9989  11.5015  11.6267  12.2454  12.2883  13.3136

          k = 0.0000 0.0000 0.1443 (  3720 PWs)   bands (ev):

   -74.9986 -74.9786 -41.2063 -41.0713 -41.0636 -41.0252 -40.9162 -40.9152
     1.8655   5.9231   8.1177   8.1984   9.5742  10.0363  10.5883  10.7155
    10.8779  10.9981  11.4714  11.6351  12.0691  12.2422  14.4285

          k = 0.0000 0.0000-0.2887 (  3720 PWs)   bands (ev):

   -74.9985 -74.9786 -41.2062 -41.0714 -41.0637 -41.0254 -40.9163 -40.9150
     2.3964   4.7169   7.8930   8.6141   9.8795  10.0872  10.2904  10.8825
    10.9843  11.4353  11.4446  11.6404  12.2390  12.2774  12.6951

          k = 0.0000 0.1531 0.0000 (  3748 PWs)   bands (ev):

   -74.9957 -74.9815 -41.1883 -41.0941 -41.0579 -41.0311 -40.9147 -40.9132
     1.9950   5.5194   8.4588   8.5129   9.2705   9.7082  10.5479  10.9199
    10.9719  10.9928  11.5150  11.6013  12.1104  12.1620  14.8102

          k = 0.0000 0.1531 0.1443 (  3745 PWs)   bands (ev):

   -74.9957 -74.9815 -41.1884 -41.0940 -41.0581 -41.0311 -40.9147 -40.9131
     2.3297   5.7016   6.5523   8.7026   9.6961   9.8465  10.4954  10.7073
    10.9692  11.2955  11.5115  11.5853  12.1163  12.1872  14.7491

          k = 0.0000 0.1531-0.2887 (  3738 PWs)   bands (ev):

   -74.9956 -74.9815 -41.1882 -41.0938 -41.0579 -41.0309 -40.9150 -40.9131
     2.8343   5.1806   6.2135   8.2239   9.9477   9.9948  10.4148  10.4868
    10.9664  11.5080  11.5704  11.6792  11.6989  12.1217  14.5774

          k = 0.0000-0.3062 0.0000 (  3738 PWs)   bands (ev):

   -74.9886 -74.9886 -41.1430 -41.1430 -41.0444 -41.0444 -40.9121 -40.9121
     3.3813   3.3813   8.7676   8.7676   9.5814   9.5814  10.5186  10.5186
    11.2350  11.2350  11.7022  11.7022  11.8411  11.8411  14.1582

          k = 0.0000-0.3062 0.1443 (  3756 PWs)   bands (ev):

   -74.9886 -74.9886 -41.1432 -41.1432 -41.0446 -41.0446 -40.9123 -40.9123
     3.6831   3.6831   7.6396   7.6396   9.8020   9.8020  10.3118  10.3118
    11.2237  11.2237  11.7959  11.7959  11.8461  11.8461  15.8639

          k = 0.0000-0.3062-0.2887 (  3752 PWs)   bands (ev):

   -74.9886 -74.9886 -41.1431 -41.1431 -41.0445 -41.0445 -40.9124 -40.9124
     4.1150   4.1150   6.6596   6.6596   9.8920   9.8920  10.2007  10.2007
    11.2127  11.2127  11.8510  11.8510  11.8513  11.8513  18.1626

          k = 0.1667 0.0000 0.0000 (  3717 PWs)   bands (ev):

   -74.9947 -74.9774 -41.1948 -41.0877 -41.0779 -41.0550 -40.9130 -40.9120
     2.0853   7.6907   8.5288   8.8324   9.2237   9.8798   9.9587  10.6654
    10.7348  10.8250  11.4286  11.8745  12.4664  12.5288  13.4220

          k = 0.1667 0.0000 0.1443 (  3727 PWs)   bands (ev):

   -74.9947 -74.9774 -41.1949 -41.0878 -41.0781 -41.0551 -40.9131 -40.9120
     2.4173   6.4187   8.4701   8.6338   9.7918   9.9773  10.4061  10.6900
    10.6919  10.9994  11.3929  11.4714  12.4365  12.5280  14.8099

          k = 0.1667 0.0000-0.2887 (  3746 PWs)   bands (ev):

   -74.9947 -74.9774 -41.1951 -41.0878 -41.0784 -41.0553 -40.9135 -40.9120
     2.9163   5.2962   8.2516   8.9626   9.9243  10.2518  10.5467  10.6113
    10.7255  11.2658  11.4475  11.5348  11.5785  12.8478  13.9014

          k = 0.1667 0.1531 0.0000 (  3740 PWs)   bands (ev):

   -74.9922 -74.9800 -41.1819 -41.1039 -41.0803 -41.0527 -40.9119 -40.9111
     2.5538   6.0197   8.7039   8.8609   9.5480   9.7235  10.5508  10.5714
    10.8077  10.9808  11.6280  11.6332  12.4889  12.5104  14.9716

          k = 0.1667 0.1531 0.1443 (  3728 PWs)   bands (ev):

   -74.9922 -74.9800 -41.1818 -41.1039 -41.0801 -41.0527 -40.9119 -40.9109
     2.8752   6.1756   7.0687   9.0743   9.7615   9.9322  10.3814  10.5599
    10.7688  11.2293  11.4723  11.6165  11.9440  12.9140  14.9448

          k = 0.1667 0.1531-0.2887 (  3726 PWs)   bands (ev):

   -74.9922 -74.9800 -41.1817 -41.1039 -41.0802 -41.0527 -40.9121 -40.9108
     3.3500   5.7281   6.6994   8.6918  10.0713  10.1049  10.1649  10.5576
    10.7159  11.2712  11.2964  11.6681  11.8080  12.6055  14.8470

          k = 0.1667-0.3062 0.0000 (  3742 PWs)   bands (ev):

   -74.9861 -74.9861 -41.1469 -41.1469 -41.0636 -41.0636 -40.9105 -40.9105
     3.9204   3.9204   9.0946   9.0946   9.7732   9.7732  10.1873  10.1873
    11.1231  11.1231  11.6238  11.6238  12.5568  12.5568  14.3657

          k = 0.1667-0.3062 0.1443 (  3742 PWs)   bands (ev):

   -74.9861 -74.9861 -41.1471 -41.1471 -41.0637 -41.0637 -40.9103 -40.9103
     4.2088   4.2088   8.0915   8.0915   9.9741   9.9741  10.1869  10.1869
    11.0584  11.0584  11.7104  11.7104  12.0138  12.0138  16.3643

          k = 0.1667-0.3062-0.2887 (  3752 PWs)   bands (ev):

   -74.9861 -74.9861 -41.1472 -41.1472 -41.0637 -41.0637 -40.9105 -40.9105
     4.6134   4.6134   7.1957   7.1957  10.0513  10.0513  10.1889  10.1889
    10.9876  10.9876  11.6517  11.6517  11.9561  11.9561  17.7951

          k = 0.3333 0.0000 0.0000 (  3742 PWs)   bands (ev):

   -74.9861 -74.9761 -41.1655 -41.1347 -41.1160 -41.0981 -40.9070 -40.9061
     3.7373   8.3543   8.9936   9.0981   9.4729   9.7506  10.1380  10.5185
    10.9090  10.9272  11.8857  12.4966  12.9878  13.0719  13.1645

          k = 0.3333 0.0000 0.1443 (  3751 PWs)   bands (ev):

   -74.9861 -74.9761 -41.1656 -41.1348 -41.1160 -41.0980 -40.9070 -40.9065
     4.0268   7.6701   9.0618   9.2168   9.4132   9.8407  10.0466  10.5679
    10.8364  11.1725  11.4535  11.8970  12.3968  13.1297  14.1943

          k = 0.3333 0.0000-0.2887 (  3758 PWs)   bands (ev):

   -74.9861 -74.9761 -41.1656 -41.1347 -41.1160 -41.0981 -40.9073 -40.9066
     4.4341   6.8915   9.0591   9.2195   9.4847   9.8583  10.4787  10.5088
    10.5947  11.2689  11.4112  11.6499  11.9326  13.3774  14.8943

          k = 0.3333 0.1531 0.0000 (  3741 PWs)   bands (ev):

   -74.9846 -74.9775 -41.1747 -41.1433 -41.1127 -41.0832 -40.9069 -40.9066
     4.1809   7.3636   8.9154   9.1996   9.5040   9.9542  10.1699  10.2263
    10.8771  11.1153  11.8535  12.0787  12.8974  13.3110  13.4643

          k = 0.3333 0.1531 0.1443 (  3748 PWs)   bands (ev):

   -74.9846 -74.9776 -41.1748 -41.1433 -41.1127 -41.0832 -40.9070 -40.9067
     4.4617   7.4506   8.3235   9.2180   9.5184   9.8647  10.1965  10.4073
    11.0198  11.0835  11.5011  11.8435  11.9716  12.8805  14.7516

          k = 0.3333 0.1531-0.2887 (  3742 PWs)   bands (ev):

   -74.9846 -74.9775 -41.1747 -41.1433 -41.1127 -41.0831 -40.9070 -40.9067
     4.8522   7.1635   8.0815   9.4465   9.5104   9.6732  10.3295  10.4629
    10.5000  11.0094  11.4544  11.6548  11.8793  13.5085  13.7205

          k = 0.3333-0.3062 0.0000 (  3754 PWs)   bands (ev):

   -74.9811 -74.9811 -41.1700 -41.1700 -41.0872 -41.0872 -40.9068 -40.9068
     5.4668   5.4668   9.3901   9.3901   9.6582   9.6582  10.2500  10.2500
    10.9562  10.9562  11.6348  11.6348  13.3766  13.3766  14.2666

          k = 0.3333-0.3062 0.1443 (  3734 PWs)   bands (ev):

   -74.9811 -74.9811 -41.1697 -41.1697 -41.0871 -41.0871 -40.9067 -40.9067
     5.7177   5.7177   8.8799   8.8799   9.8784   9.8784  10.3041  10.3041
    10.9580  10.9580  11.4988  11.4988  12.2651  12.2651  14.4932

          k = 0.3333-0.3062-0.2887 (  3732 PWs)   bands (ev):

   -74.9811 -74.9811 -41.1696 -41.1696 -41.0871 -41.0871 -40.9068 -40.9068
     6.0471   6.0471   8.4502   8.4502   9.8391   9.8391  10.4369  10.4369
    10.5727  10.5727  11.5391  11.5391  12.1102  12.1102  14.4676

          k =-0.5000 0.0000 0.0000 (  3734 PWs)   bands (ev):

   -74.9786 -74.9786 -41.1519 -41.1519 -41.1292 -41.1292 -40.9037 -40.9037
     6.3087   6.3087   8.8457   8.8457   9.5786   9.5786  10.8326  10.8326
    10.9746  10.9746  12.4010  12.4010  14.2933  14.2933  14.5321

          k =-0.5000 0.0000 0.1443 (  3768 PWs)   bands (ev):

   -74.9786 -74.9786 -41.1522 -41.1522 -41.1294 -41.1294 -40.9040 -40.9040
     6.5156   6.5156   8.8507   8.8507   9.5358   9.5358  10.7578  10.7578
    11.0210  11.0210  11.8515  11.8515  13.2559  13.2559  14.6482

          k =-0.5000 0.0000-0.2887 (  3764 PWs)   bands (ev):

   -74.9786 -74.9786 -41.1522 -41.1522 -41.1292 -41.1292 -40.9041 -40.9041
     6.7595   6.7595   8.9372   8.9372   9.4958   9.4958  10.2979  10.2979
    11.0644  11.0644  11.4507  11.4507  13.1977  13.1977  14.7797

          k =-0.5000 0.1531 0.0000 (  3746 PWs)   bands (ev):

   -74.9786 -74.9786 -41.1757 -41.1757 -41.1050 -41.1050 -40.9044 -40.9044
     6.6553   6.6553   9.0248   9.0248   9.4196   9.4196  10.3043  10.3043
    10.7386  10.7386  12.3834  12.3834  12.9786  12.9786  14.8843

          k =-0.5000 0.1531 0.1443 (  3760 PWs)   bands (ev):

   -74.9786 -74.9786 -41.1758 -41.1758 -41.1051 -41.1051 -40.9045 -40.9045
     6.8788   6.8788   8.7240   8.7240   9.8222   9.8222  10.1951  10.1951
    11.0061  11.0061  11.7097  11.7097  12.6307  12.6307  14.3370

          k =-0.5000 0.1531-0.2887 (  3756 PWs)   bands (ev):

   -74.9786 -74.9786 -41.1758 -41.1758 -41.1049 -41.1049 -40.9046 -40.9046
     7.1323   7.1323   8.7155   8.7155   9.8597   9.8597  10.1054  10.1054
    10.8179  10.8179  11.4194  11.4194  12.9364  12.9364  13.6141

          k =-0.5000-0.3062 0.0000 (  3720 PWs)   bands (ev):

   -74.9786 -74.9786 -41.1885 -41.1885 -41.0911 -41.0911 -40.9048 -40.9048
     7.2437   7.2437   8.6778   8.6778   9.3555   9.3555   9.8115   9.8115
    10.9165  10.9165  11.8618  11.8618  12.7220  12.7220  15.6066

          k =-0.5000-0.3062 0.1443 (  3760 PWs)   bands (ev):

   -74.9786 -74.9786 -41.1888 -41.1888 -41.0913 -41.0913 -40.9052 -40.9052
     7.6150   7.6150   8.1797   8.1797   9.6727   9.6727  10.2214  10.2214
    10.9738  10.9738  11.3629  11.3629  12.3437  12.3437  14.7218

          k =-0.5000-0.3062-0.2887 (  3736 PWs)   bands (ev):

   -74.9786 -74.9786 -41.1886 -41.1886 -41.0912 -41.0912 -40.9050 -40.9050
     7.9303   7.9303   8.3054   8.3054   9.1529   9.1529  10.6796  10.6796
    10.7878  10.7878  11.5687  11.5687  12.2428  12.2428  13.2087

     the Fermi energy is    11.6102 ev

!    total energy              =    -737.51204144 Ry
     Harris-Foulkes estimate   =    -737.51204144 Ry
     estimated scf accuracy    <          1.8E-09 Ry

     total all-electron energy =     -6062.390676 Ry

     The total energy is the sum of the following terms:

     one-electron contribution =    -380.54838381 Ry
     hartree contribution      =     207.79599177 Ry
     xc contribution           =     -75.40961665 Ry
     ewald contribution        =    -268.57378233 Ry
     one-center paw contrib.   =    -220.77625424 Ry
     smearing contrib. (-TS)   =       0.00000382 Ry

     convergence has been achieved in   9 iterations

     Forces acting on atoms (cartesian axes, Ry/au):

     atom    1 type  1   force =     0.00000000    0.00000000   -0.00785159
     atom    2 type  1   force =     0.00000000    0.00000000    0.00785159
     atom    3 type  2   force =     0.00000000    0.00000000   -0.02007385
     atom    4 type  2   force =     0.00000000    0.00000000    0.02007385

     Total force =     0.030483     Total SCF correction =     0.000089


     Computing stress (Cartesian axis) and pressure

          total   stress  (Ry/bohr**3)                   (kbar)     P=     -185.62
  -0.00065946   0.00000000   0.00000000          -97.01        0.00        0.00
   0.00000000  -0.00119756   0.00000000            0.00     -176.17        0.00
   0.00000000   0.00000000  -0.00192835            0.00        0.00     -283.67


     Writing output data file ./basic.save/

     init_run     :      4.88s CPU      5.16s WALL (       1 calls)
     electrons    :     56.45s CPU     60.66s WALL (       1 calls)
     forces       :      2.34s CPU      2.57s WALL (       1 calls)
     stress       :      4.99s CPU      5.33s WALL (       1 calls)

     Called by init_run:
     wfcinit      :      2.08s CPU      2.17s WALL (       1 calls)
     potinit      :      1.03s CPU      1.08s WALL (       1 calls)
     hinit0       :      1.46s CPU      1.54s WALL (       1 calls)

     Called by electrons:
     c_bands      :     42.57s CPU     44.74s WALL (      10 calls)
     sum_band     :      7.80s CPU      9.06s WALL (      10 calls)
     v_of_rho     :      0.94s CPU      1.08s WALL (      10 calls)
     newd         :      2.26s CPU      2.91s WALL (      10 calls)
     PAW_pot      :      3.38s CPU      3.43s WALL (      10 calls)
     mix_rho      :      0.08s CPU      0.09s WALL (      10 calls)

     Called by c_bands:
     init_us_2    :      0.66s CPU      0.69s WALL (     828 calls)
     cegterg      :     41.24s CPU     43.35s WALL (     360 calls)

     Called by sum_band:
     sum_band:bec :      0.01s CPU      0.02s WALL (     360 calls)
     addusdens    :      2.46s CPU      3.30s WALL (      10 calls)

     Called by *egterg:
     h_psi        :     24.74s CPU     26.19s WALL (    1596 calls)
     s_psi        :      3.72s CPU      3.89s WALL (    1596 calls)
     g_psi        :      0.11s CPU      0.12s WALL (    1200 calls)
     cdiaghg      :      2.05s CPU      2.11s WALL (    1524 calls)

     Called by h_psi:
     h_psi:calbec :      4.25s CPU      4.54s WALL (    1596 calls)
     vloc_psi     :     16.66s CPU     17.60s WALL (    1596 calls)
     add_vuspsi   :      3.65s CPU      3.86s WALL (    1596 calls)

     General routines
     calbec       :      6.48s CPU      6.99s WALL (    2136 calls)
     fft          :      0.41s CPU      0.45s WALL (     154 calls)
     ffts         :      0.01s CPU      0.01s WALL (      20 calls)
     fftw         :     17.28s CPU     18.33s WALL (   56520 calls)
     interpolate  :      0.04s CPU      0.04s WALL (      10 calls)

     Parallel routines
     fft_scatt_xy :      2.56s CPU      2.67s WALL (   56694 calls)
     fft_scatt_yz :      3.51s CPU      3.88s WALL (   56694 calls)

     PWSCF        :   1m 9.65s CPU   1m15.11s WALL


   This run was terminated on:   0: 3: 4  12Aug2020            

=------------------------------------------------------------------------------=
   JOB DONE.
=------------------------------------------------------------------------------=
