
     Program PWSCF v.6.5 starts on 16Aug2020 at 21: 0:58 

     This program is part of the open-source Quantum ESPRESSO suite
     for quantum simulation of materials; please cite
         "P. Giannozzi et al., J. Phys.:Condens. Matter 21 395502 (2009);
         "P. Giannozzi et al., J. Phys.:Condens. Matter 29 465901 (2017);
          URL http://www.quantum-espresso.org", 
     in publications or presentations arising from this work. More details at
     http://www.quantum-espresso.org/quote

     Parallel version (MPI), running on     4 processors

     MPI processes distributed on     1 nodes
     R & G space division:  proc/nbgrp/npool/nimage =       4
     Reading input from basic.in

     Current dimensions of program PWSCF are:
     Max number of different atomic species (ntypx) = 10
     Max number of k-points (npk) =  40000
     Max angular momentum in pseudopotentials (lmaxx) =  3
     Message from routine volume:
     axis vectors are left-handed

     IMPORTANT: XC functional enforced from input :
     Exchange-correlation= PBE
                           (   1   4   3   4   0   0   0)
     Any further DFT definition will be discarded
     Please, verify this is what you really want

               file Si.pbe-n-kjpaw_psl.1.0.0.UPF: wavefunction(s)  3S 3P renormalized

     Subspace diagonalization in iterative solution of the eigenvalue problem:
     a serial algorithm will be used

     Message from routine setup:
     using ibrav=0 with symmetry is DISCOURAGED, use correct ibrav instead

     Parallelization info
     --------------------
     sticks:   dense  smooth     PW     G-vecs:    dense   smooth      PW
     Min         183     183     55                 3234     3234     533
     Max         184     184     57                 3236     3236     534
     Sum         733     733    223                12939    12939    2133



     bravais-lattice index     =            0
     lattice parameter (alat)  =      10.2625  a.u.
     unit-cell volume          =     270.2116 (a.u.)^3
     number of atoms/cell      =            2
     number of atomic types    =            1
     number of electrons       =         8.00
     number of Kohn-Sham states=            8
     kinetic-energy cutoff     =      50.0000  Ry
     charge density cutoff     =     200.0000  Ry
     convergence threshold     =      1.0E-08
     mixing beta               =       0.7000
     number of iterations used =            8  plain     mixing
     Exchange-correlation= PBE
                           (   1   4   3   4   0   0   0)

     celldm(1)=  10.262536  celldm(2)=   0.000000  celldm(3)=   0.000000
     celldm(4)=   0.000000  celldm(5)=   0.000000  celldm(6)=   0.000000

     crystal axes: (cart. coord. in units of alat)
               a(1) = (   0.500000   0.500000   0.000000 )  
               a(2) = (   0.500000   0.000000   0.500000 )  
               a(3) = (   0.000000   0.500000   0.500000 )  

     reciprocal axes: (cart. coord. in units 2 pi/alat)
               b(1) = (  1.000000  1.000000 -1.000000 )  
               b(2) = (  1.000000 -1.000000  1.000000 )  
               b(3) = ( -1.000000  1.000000  1.000000 )  


     PseudoPot. # 1 for Si read from file:
     ./Si.pbe-n-kjpaw_psl.1.0.0.UPF
     MD5 check sum: c39c59da582df4a0d9f10159256ea34e
     Pseudo is Projector augmented-wave + core cor, Zval =  4.0
     Generated using "atomic" code by A. Dal Corso v.6.3
     Shape of augmentation charge: PSQ
     Using radial grid of 1141 points,  6 beta functions with: 
                l(1) =   0
                l(2) =   0
                l(3) =   1
                l(4) =   1
                l(5) =   2
                l(6) =   2
     Q(r) pseudized with 0 coefficients 


     atomic species   valence    mass     pseudopotential
        Si             4.00    28.08500     Si( 1.00)

     48 Sym. Ops., with inversion, found (24 have fractional translation)



   Cartesian axes

     site n.     atom                  positions (alat units)
         1           Si  tau(   1) = (   0.0000000   0.0000000   0.0000000  )
         2           Si  tau(   2) = (   0.2500000   0.2500000   0.2500000  )

     number of k points=    20  Marzari-Vanderbilt smearing, width (Ry)=  0.0050
                       cart. coord. in units 2pi/alat
        k(    1) = (   0.0000000   0.0000000   0.0000000), wk =   0.0058309
        k(    2) = (  -0.1428571   0.1428571   0.1428571), wk =   0.0466472
        k(    3) = (  -0.2857143   0.2857143   0.2857143), wk =   0.0466472
        k(    4) = (  -0.4285714   0.4285714   0.4285714), wk =   0.0466472
        k(    5) = (   0.0000000   0.0000000   0.2857143), wk =   0.0349854
        k(    6) = (  -0.1428571   0.1428571   0.4285714), wk =   0.1399417
        k(    7) = (  -0.2857143   0.2857143   0.5714286), wk =   0.1399417
        k(    8) = (   0.5714286  -0.5714286  -0.2857143), wk =   0.1399417
        k(    9) = (   0.4285714  -0.4285714  -0.1428571), wk =   0.1399417
        k(   10) = (   0.2857143  -0.2857143  -0.0000000), wk =   0.0699708
        k(   11) = (   0.0000000   0.0000000   0.5714286), wk =   0.0349854
        k(   12) = (  -0.1428571   0.1428571   0.7142857), wk =   0.1399417
        k(   13) = (   0.7142857  -0.7142857  -0.1428571), wk =   0.1399417
        k(   14) = (   0.5714286  -0.5714286   0.0000000), wk =   0.0699708
        k(   15) = (   0.0000000   0.0000000   0.8571429), wk =   0.0349854
        k(   16) = (   0.8571429  -0.8571429  -0.0000000), wk =   0.0699708
        k(   17) = (   0.0000000   0.2857143   0.5714286), wk =   0.1399417
        k(   18) = (   0.8571429  -0.5714286  -0.2857143), wk =   0.2798834
        k(   19) = (   1.0000000  -0.7142857  -0.1428571), wk =   0.1399417
        k(   20) = (   0.8571429  -0.5714286   0.0000000), wk =   0.1399417

     Dense  grid:    12939 G-vectors     FFT dimensions: (  36,  36,  36)

     Estimated max dynamical RAM per process >      15.18 MB

     Estimated total dynamical RAM >      60.71 MB

     Initial potential from superposition of free atoms

     starting charge    7.99888, renormalised to    8.00000
     Starting wfcs are    8 randomized atomic wfcs
     Checking if some PAW data can be deallocated... 

     total cpu time spent up to now is        1.2 secs

     Self-consistent Calculation

     iteration #  1     ecut=    50.00 Ry     beta= 0.70
     Davidson diagonalization with overlap
     ethr =  1.00E-02,  avg # of iterations =  3.6

     Threshold (ethr) on eigenvalues was too large:
     Diagonalizing with lowered threshold

     Davidson diagonalization with overlap
     ethr =  7.16E-04,  avg # of iterations =  1.1

     total cpu time spent up to now is        2.1 secs

     total energy              =     -93.45002032 Ry
     Harris-Foulkes estimate   =     -93.46389946 Ry
     estimated scf accuracy    <       0.05665469 Ry

     iteration #  2     ecut=    50.00 Ry     beta= 0.70
     Davidson diagonalization with overlap
     ethr =  7.08E-04,  avg # of iterations =  1.0

     total cpu time spent up to now is        2.5 secs

     total energy              =     -93.45240684 Ry
     Harris-Foulkes estimate   =     -93.45252172 Ry
     estimated scf accuracy    <       0.00218856 Ry

     iteration #  3     ecut=    50.00 Ry     beta= 0.70
     Davidson diagonalization with overlap
     ethr =  2.74E-05,  avg # of iterations =  2.5

     total cpu time spent up to now is        3.0 secs

     total energy              =     -93.45254440 Ry
     Harris-Foulkes estimate   =     -93.45254006 Ry
     estimated scf accuracy    <       0.00004374 Ry

     iteration #  4     ecut=    50.00 Ry     beta= 0.70
     Davidson diagonalization with overlap
     ethr =  5.47E-07,  avg # of iterations =  2.6

     total cpu time spent up to now is        3.8 secs

     total energy              =     -93.45255546 Ry
     Harris-Foulkes estimate   =     -93.45255535 Ry
     estimated scf accuracy    <       0.00000037 Ry

     iteration #  5     ecut=    50.00 Ry     beta= 0.70
     Davidson diagonalization with overlap
     ethr =  4.65E-09,  avg # of iterations =  2.5

     total cpu time spent up to now is        5.1 secs

     total energy              =     -93.45255564 Ry
     Harris-Foulkes estimate   =     -93.45255564 Ry
     estimated scf accuracy    <       0.00000003 Ry

     iteration #  6     ecut=    50.00 Ry     beta= 0.70
     Davidson diagonalization with overlap
     ethr =  3.50E-10,  avg # of iterations =  1.9

     total cpu time spent up to now is        5.8 secs

     End of self-consistent calculation

          k = 0.0000 0.0000 0.0000 (  1639 PWs)   bands (ev):

    -5.7580   6.2059   6.2059   6.2059   8.7672   8.7672   8.7672   9.5655

          k =-0.1429 0.1429 0.1429 (  1594 PWs)   bands (ev):

    -5.4920   4.2724   5.8481   5.8481   8.6442   9.2893   9.2893  11.2291

          k =-0.2857 0.2857 0.2857 (  1624 PWs)   bands (ev):

    -4.7252   1.6498   5.3317   5.3317   8.1083   9.7407   9.7407  13.6678

          k =-0.4286 0.4286 0.4286 (  1616 PWs)   bands (ev):

    -3.6832  -0.3843   5.0429   5.0429   7.7832   9.5860   9.5860  14.0020

          k = 0.0000 0.0000 0.2857 (  1607 PWs)   bands (ev):

    -5.4020   4.5738   5.2316   5.2316   8.0863  10.1763  10.1763  10.6366

          k =-0.1429 0.1429 0.4286 (  1613 PWs)   bands (ev):

    -4.7948   2.4458   4.6498   4.6885   8.2819  10.1184  10.7659  10.9601

          k =-0.2857 0.2857 0.5714 (  1605 PWs)   bands (ev):

    -3.7848   0.2573   3.9606   4.4997   8.3480  10.0337  10.7391  11.9946

          k = 0.5714-0.5714-0.2857 (  1602 PWs)   bands (ev):

    -3.2246  -0.6094   3.5453   4.6983   8.4494   9.9411  10.3413  14.3846

          k = 0.4286-0.4286-0.1429 (  1620 PWs)   bands (ev):

    -4.1538   0.9387   3.5484   5.2135   8.8562  10.1049  10.1403  12.8670

          k = 0.2857-0.2857-0.0000 (  1604 PWs)   bands (ev):

    -5.0555   3.0666   4.2372   5.8079   9.2650   9.4994   9.7635  11.8435

          k = 0.0000 0.0000 0.5714 (  1612 PWs)   bands (ev):

    -4.3506   2.0442   4.0651   4.0651   7.1364   8.8174  12.5996  12.5996

          k =-0.1429 0.1429 0.7143 (  1621 PWs)   bands (ev):

    -3.4472   0.5385   3.0847   3.8050   7.4193   8.9071  12.8309  12.9888

          k = 0.7143-0.7143-0.1429 (  1613 PWs)   bands (ev):

    -2.5273  -0.6436   2.1298   3.9743   7.6593  11.1520  12.4857  12.5719

          k = 0.5714-0.5714 0.0000 (  1610 PWs)   bands (ev):

    -3.1789   0.1092   2.0548   4.5248   8.2687  11.6643  12.0027  12.8319

          k = 0.0000 0.0000 0.8571 (  1608 PWs)   bands (ev):

    -2.6622  -0.4600   3.4327   3.4327   6.7786   7.2946  15.2552  15.2552

          k = 0.8571-0.8571-0.0000 (  1614 PWs)   bands (ev):

    -1.7100  -1.4211   2.5360   3.4944   7.0803   8.3428  15.0321  15.4855

          k = 0.0000 0.2857 0.5714 (  1612 PWs)   bands (ev):

    -4.0415   1.3056   3.0876   4.4160   8.7900  10.0433  10.3492  12.3527

          k = 0.8571-0.5714-0.2857 (  1615 PWs)   bands (ev):

    -2.9977  -0.2301   2.5156   3.8774   9.2751   9.6919  11.6804  12.8051

          k = 1.0000-0.7143-0.1429 (  1631 PWs)   bands (ev):

    -2.4565  -0.5458   2.6032   3.0146   8.4177   8.7853  12.3638  14.8848

          k = 0.8571-0.5714 0.0000 (  1609 PWs)   bands (ev):

    -2.0182  -0.9438   1.9618   3.1069   8.9446  11.0492  11.8583  11.9982

     the Fermi energy is     6.2685 ev

!    total energy              =     -93.45255564 Ry
     Harris-Foulkes estimate   =     -93.45255564 Ry
     estimated scf accuracy    <          5.9E-11 Ry

     total all-electron energy =     -1160.144286 Ry

     The total energy is the sum of the following terms:

     one-electron contribution =       5.73816934 Ry
     hartree contribution      =       1.10231902 Ry
     xc contribution           =     -12.30952476 Ry
     ewald contribution        =     -16.79677837 Ry
     one-center paw contrib.   =     -71.18674801 Ry
     smearing contrib. (-TS)   =       0.00000713 Ry

     convergence has been achieved in   6 iterations

     Forces acting on atoms (cartesian axes, Ry/au):

     atom    1 type  1   force =     0.00000000   -0.00000000   -0.00000000
     atom    2 type  1   force =    -0.00000000    0.00000000    0.00000000

     Total force =     0.000000     Total SCF correction =     0.000000


     Computing stress (Cartesian axis) and pressure

          total   stress  (Ry/bohr**3)                   (kbar)     P=       19.85
   0.00013495  -0.00000000   0.00000000           19.85       -0.00        0.00
   0.00000000   0.00013495   0.00000000            0.00       19.85        0.00
   0.00000000   0.00000000   0.00013495            0.00        0.00       19.85


     Writing output data file ./basic.save/

     init_run     :      0.44s CPU      0.59s WALL (       1 calls)
     electrons    :      4.17s CPU      4.61s WALL (       1 calls)
     forces       :      0.10s CPU      0.11s WALL (       1 calls)
     stress       :      0.23s CPU      0.25s WALL (       1 calls)

     Called by init_run:
     wfcinit      :      0.09s CPU      0.10s WALL (       1 calls)
     potinit      :      0.15s CPU      0.21s WALL (       1 calls)
     hinit0       :      0.17s CPU      0.21s WALL (       1 calls)

     Called by electrons:
     c_bands      :      2.52s CPU      2.84s WALL (       7 calls)
     sum_band     :      0.61s CPU      0.65s WALL (       7 calls)
     v_of_rho     :      0.08s CPU      0.11s WALL (       7 calls)
     newd         :      0.11s CPU      0.12s WALL (       7 calls)
     PAW_pot      :      0.98s CPU      1.07s WALL (       7 calls)
     mix_rho      :      0.01s CPU      0.01s WALL (       7 calls)

     Called by c_bands:
     init_us_2    :      0.06s CPU      0.07s WALL (     340 calls)
     cegterg      :      2.38s CPU      2.68s WALL (     140 calls)

     Called by sum_band:
     sum_band:bec :      0.00s CPU      0.00s WALL (     140 calls)
     addusdens    :      0.09s CPU      0.09s WALL (       7 calls)

     Called by *egterg:
     h_psi        :      1.98s CPU      2.23s WALL (     469 calls)
     s_psi        :      0.08s CPU      0.09s WALL (     469 calls)
     g_psi        :      0.00s CPU      0.00s WALL (     309 calls)
     cdiaghg      :      0.06s CPU      0.07s WALL (     429 calls)

     Called by h_psi:
     h_psi:calbec :      0.17s CPU      0.21s WALL (     469 calls)
     vloc_psi     :      1.71s CPU      1.92s WALL (     469 calls)
     add_vuspsi   :      0.09s CPU      0.09s WALL (     469 calls)

     General routines
     calbec       :      0.32s CPU      0.37s WALL (     709 calls)
     fft          :      0.06s CPU      0.10s WALL (     103 calls)
     ffts         :      0.00s CPU      0.00s WALL (       7 calls)
     fftw         :      1.90s CPU      2.12s WALL (    6996 calls)

     Parallel routines
     fft_scatt_xy :      0.13s CPU      0.13s WALL (    7106 calls)
     fft_scatt_yz :      0.92s CPU      1.09s WALL (    7106 calls)

     PWSCF        :      5.56s CPU      6.25s WALL


   This run was terminated on:  21: 1: 5  16Aug2020            

=------------------------------------------------------------------------------=
   JOB DONE.
=------------------------------------------------------------------------------=
