
     Program PWSCF v.6.5 starts on 16Aug2020 at 21: 4:27 

     This program is part of the open-source Quantum ESPRESSO suite
     for quantum simulation of materials; please cite
         "P. Giannozzi et al., J. Phys.:Condens. Matter 21 395502 (2009);
         "P. Giannozzi et al., J. Phys.:Condens. Matter 29 465901 (2017);
          URL http://www.quantum-espresso.org", 
     in publications or presentations arising from this work. More details at
     http://www.quantum-espresso.org/quote

     Parallel version (MPI), running on     4 processors

     MPI processes distributed on     1 nodes
     R & G space division:  proc/nbgrp/npool/nimage =       4
     Reading input from basicbands.in

     Current dimensions of program PWSCF are:
     Max number of different atomic species (ntypx) = 10
     Max number of k-points (npk) =  40000
     Max angular momentum in pseudopotentials (lmaxx) =  3
     Message from routine volume:
     axis vectors are left-handed

     Atomic positions and unit cell read from directory:
     ./basic.save/                                                                                                                                                                                                                                                   
     Message from routine volume:
     axis vectors are left-handed


     IMPORTANT: XC functional enforced from input :
     Exchange-correlation= PBE
                           (   1   4   3   4   0   0   0)
     Any further DFT definition will be discarded
     Please, verify this is what you really want

               file Si.pbe-n-kjpaw_psl.1.0.0.UPF: wavefunction(s)  3S 3P renormalized

     Subspace diagonalization in iterative solution of the eigenvalue problem:
     a serial algorithm will be used

     Message from routine setup:
     using ibrav=0 with symmetry is DISCOURAGED, use correct ibrav instead

     Parallelization info
     --------------------
     sticks:   dense  smooth     PW     G-vecs:    dense   smooth      PW
     Min         183     183     52                 3234     3234     526
     Max         184     184     53                 3236     3236     529
     Sum         733     733    211                12939    12939    2109



     bravais-lattice index     =            0
     lattice parameter (alat)  =      10.2625  a.u.
     unit-cell volume          =     270.2116 (a.u.)^3
     number of atoms/cell      =            2
     number of atomic types    =            1
     number of electrons       =         8.00
     number of Kohn-Sham states=           10
     kinetic-energy cutoff     =      50.0000  Ry
     charge density cutoff     =     200.0000  Ry
     Exchange-correlation= PBE
                           (   1   4   3   4   0   0   0)

     celldm(1)=  10.262536  celldm(2)=   0.000000  celldm(3)=   0.000000
     celldm(4)=   0.000000  celldm(5)=   0.000000  celldm(6)=   0.000000

     crystal axes: (cart. coord. in units of alat)
               a(1) = (   0.500000   0.500000   0.000000 )  
               a(2) = (   0.500000   0.000000   0.500000 )  
               a(3) = (   0.000000   0.500000   0.500000 )  

     reciprocal axes: (cart. coord. in units 2 pi/alat)
               b(1) = (  1.000000  1.000000 -1.000000 )  
               b(2) = (  1.000000 -1.000000  1.000000 )  
               b(3) = ( -1.000000  1.000000  1.000000 )  


     PseudoPot. # 1 for Si read from file:
     ./Si.pbe-n-kjpaw_psl.1.0.0.UPF
     MD5 check sum: c39c59da582df4a0d9f10159256ea34e
     Pseudo is Projector augmented-wave + core cor, Zval =  4.0
     Generated using "atomic" code by A. Dal Corso v.6.3
     Shape of augmentation charge: PSQ
     Using radial grid of 1141 points,  6 beta functions with: 
                l(1) =   0
                l(2) =   0
                l(3) =   1
                l(4) =   1
                l(5) =   2
                l(6) =   2
     Q(r) pseudized with 0 coefficients 


     atomic species   valence    mass     pseudopotential
        Si             4.00    28.08500     Si( 1.00)

     48 Sym. Ops., with inversion, found (24 have fractional translation)



   Cartesian axes

     site n.     atom                  positions (alat units)
         1           Si  tau(   1) = (   0.0000000   0.0000000   0.0000000  )
         2           Si  tau(   2) = (   0.2500000   0.2500000   0.2500000  )

     number of k points=   301  Marzari-Vanderbilt smearing, width (Ry)=  0.0050

     Number of k-points >= 100: set verbosity='high' to print them.

     Dense  grid:    12939 G-vectors     FFT dimensions: (  36,  36,  36)

     Estimated max dynamical RAM per process >      12.64 MB

     Estimated total dynamical RAM >      50.55 MB

     The potential is recalculated from file :
     ./basic.save/charge-density

     Starting wfcs are    8 randomized atomic wfcs +    2 random wfcs
     Checking if some PAW data can be deallocated... 

     Band Structure Calculation
     Davidson diagonalization with overlap

     ethr =  1.25E-10,  avg # of iterations = 19.4

     total cpu time spent up to now is       42.0 secs

     End of band structure calculation

     Number of k-points >= 100: set verbosity='high' to print the bands.

     Writing output data file ./basic.save/

     init_run     :      0.36s CPU      0.39s WALL (       1 calls)
     electrons    :     36.36s CPU     40.72s WALL (       1 calls)

     Called by init_run:
     wfcinit      :      0.00s CPU      0.00s WALL (       1 calls)
     potinit      :      0.14s CPU      0.15s WALL (       1 calls)
     hinit0       :      0.16s CPU      0.19s WALL (       1 calls)

     Called by electrons:
     c_bands      :     36.36s CPU     40.72s WALL (       1 calls)
     v_of_rho     :      0.01s CPU      0.02s WALL (       1 calls)
     newd         :      0.02s CPU      0.02s WALL (       1 calls)
     PAW_pot      :      0.12s CPU      0.12s WALL (       1 calls)

     Called by c_bands:
     init_us_2    :      0.06s CPU      0.07s WALL (     301 calls)
     cegterg      :     33.44s CPU     37.35s WALL (     384 calls)

     Called by sum_band:

     Called by *egterg:
     h_psi        :     25.57s CPU     28.59s WALL (    6527 calls)
     s_psi        :      1.19s CPU      1.28s WALL (    6527 calls)
     g_psi        :      0.07s CPU      0.08s WALL (    5842 calls)
     cdiaghg      :      1.89s CPU      2.01s WALL (    6143 calls)

     Called by h_psi:
     h_psi:calbec :      2.15s CPU      2.41s WALL (    6527 calls)
     vloc_psi     :     22.11s CPU     24.81s WALL (    6527 calls)
     add_vuspsi   :      1.20s CPU      1.26s WALL (    6527 calls)

     General routines
     calbec       :      2.13s CPU      2.39s WALL (    6527 calls)
     fft          :      0.03s CPU      0.05s WALL (      12 calls)
     fftw         :     20.53s CPU     23.13s WALL (   83976 calls)
     davcio       :      0.03s CPU      0.07s WALL (     602 calls)

     Parallel routines
     fft_scatt_xy :      1.36s CPU      1.43s WALL (   83988 calls)
     fft_scatt_yz :      8.68s CPU     10.54s WALL (   83988 calls)

     PWSCF        :     37.91s CPU     42.59s WALL


   This run was terminated on:  21: 5:10  16Aug2020            

=------------------------------------------------------------------------------=
   JOB DONE.
=------------------------------------------------------------------------------=
