
     Program BANDS v.6.5 starts on 16Aug2020 at 21:10:22 

     This program is part of the open-source Quantum ESPRESSO suite
     for quantum simulation of materials; please cite
         "P. Giannozzi et al., J. Phys.:Condens. Matter 21 395502 (2009);
         "P. Giannozzi et al., J. Phys.:Condens. Matter 29 465901 (2017);
          URL http://www.quantum-espresso.org", 
     in publications or presentations arising from this work. More details at
     http://www.quantum-espresso.org/quote

     Parallel version (MPI), running on     4 processors

     MPI processes distributed on     1 nodes
     R & G space division:  proc/nbgrp/npool/nimage =       4

     Reading xml data from directory:

     ./basic.save/
     Message from routine volume:
     axis vectors are left-handed

     IMPORTANT: XC functional enforced from input :
     Exchange-correlation= PBE
                           (   1   4   3   4   0   0   0)
     Any further DFT definition will be discarded
     Please, verify this is what you really want

               file Si.pbe-n-kjpaw_psl.1.0.0.UPF: wavefunction(s)  3S 3P renormalized

     Parallelization info
     --------------------
     sticks:   dense  smooth     PW     G-vecs:    dense   smooth      PW
     Min         183     183     52                 3234     3234     526
     Max         184     184     53                 3236     3236     529
     Sum         733     733    211                12939    12939    2109

     Reading collected, re-writing distributed wavefunctions
     high-symmetry point:  0.0000 0.0000 0.0000   x coordinate   0.0000
     high-symmetry point:  0.0000 1.0000 0.0000   x coordinate   1.0000
     high-symmetry point:  0.0000 1.0000 0.5000   x coordinate   1.5000
     high-symmetry point:  0.0000 0.7500 0.7500   x coordinate   1.8536
     high-symmetry point:  0.0000 0.0000 0.0000   x coordinate   2.9142
     high-symmetry point:  0.5000 0.5000 0.5000   x coordinate   3.7802
     high-symmetry point:  0.2500 1.0000 0.2500   x coordinate   4.3926
     high-symmetry point:  0.0000 1.0000 0.5000   x coordinate   4.7462
     high-symmetry point:  0.5000 0.5000 0.5000   x coordinate   5.4533
     high-symmetry point:  0.0000 0.7500 0.7500   x coordinate   6.0656
     high-symmetry point:  0.0000 1.0000 0.0000   x coordinate   6.8562

     Plottable bands (eV) written to file siliconbands.dat.gnu
     Bands written to file siliconbands.dat

 **************************************************************************

                    xk=(   0.00000,   0.00000,   0.00000  )

     point group O_h (m-3m) 
     there are 10 classes
     the character table:

       E     8C3   3C2   6C4   6C2'  i     8S6   3s_h  6S4   6s_d 
A_1g   1.00  1.00  1.00  1.00  1.00  1.00  1.00  1.00  1.00  1.00
A_2g   1.00  1.00  1.00 -1.00 -1.00  1.00  1.00  1.00 -1.00 -1.00
E_g    2.00 -1.00  2.00  0.00  0.00  2.00 -1.00  2.00  0.00  0.00
T_1g   3.00  0.00 -1.00  1.00 -1.00  3.00  0.00 -1.00  1.00 -1.00
T_2g   3.00  0.00 -1.00 -1.00  1.00  3.00  0.00 -1.00 -1.00  1.00
A_1u   1.00  1.00  1.00  1.00  1.00 -1.00 -1.00 -1.00 -1.00 -1.00
A_2u   1.00  1.00  1.00 -1.00 -1.00 -1.00 -1.00 -1.00  1.00  1.00
E_u    2.00 -1.00  2.00  0.00  0.00 -2.00  1.00 -2.00  0.00  0.00
T_1u   3.00  0.00 -1.00  1.00 -1.00 -3.00  0.00  1.00 -1.00  1.00
T_2u   3.00  0.00 -1.00 -1.00  1.00 -3.00  0.00  1.00  1.00 -1.00

     the symmetry operations in each class and the name of the first element:

     E        1
                                                                 
     8C3     17   19   20   18   24   21   22   23
                                                                 
     3C2      2    4    3
                                                                 
     6C4      7    8   15   16   12   11
                                                                 
     6C2'     5    6   14   13   10    9
                                                                 
     i       25
                                                                 
     8S6     41   43   44   42   48   45   46   47
                                                                 
     3s_h    26   28   27
                                                                 
     6S4     31   32   39   40   36   35
                                                                 
     6s_d    29   30   38   37   34   33
                                                                 

     Band symmetry, O_h (m-3m)  point group:

     e(  1 -  1) =     -5.75806  eV     1   --> A_1g G_1   G_1+
     e(  2 -  4) =      6.20586  eV     3   --> T_2g G_25' G_5+
     e(  5 -  7) =      8.76717  eV     3   --> T_1u G_15  G_4-
     e(  8 -  8) =      9.56547  eV     1   --> A_2u G_2'  G_2-
     e(  9 - 10) =     13.92979  eV     2   --> E_u  G_12' G_3-

 **************************************************************************

 **************************************************************************

                    xk=(   0.00000,   0.03333,   0.00000  )

     point group C_4v (4mm) 
     there are  5 classes
     the character table:

       E     2C4   C2    2s_v  2s_d 
A_1    1.00  1.00  1.00  1.00  1.00
A_2    1.00  1.00  1.00 -1.00 -1.00
B_1    1.00 -1.00  1.00  1.00 -1.00
B_2    1.00 -1.00  1.00 -1.00  1.00
E      2.00  0.00 -2.00  0.00  0.00

     the symmetry operations in each class and the name of the first element:

     E        1
                                                                 
     2C4      3    4
                                                                 
     C2       2
                                                                 
     2s_v     5    6
                                                                 
     2s_d     7    8
                                                                 

     Band symmetry, C_4v (4mm)  point group:

     e(  1 -  1) =     -5.75320  eV     1   --> A_1  G_1 D_1   
     e(  2 -  2) =      6.17230  eV     1   --> B_2  G_4 D_2'  
     e(  3 -  4) =      6.18467  eV     2   --> E    G_5 D_5   
     e(  5 -  5) =      8.75505  eV     1   --> A_1  G_1 D_1   
     e(  6 -  7) =      8.79434  eV     2   --> E    G_5 D_5   
     e(  8 -  8) =      9.59836  eV     1   --> B_2  G_4 D_2'  
     e(  9 -  9) =     13.88956  eV     1   --> B_2  G_4 D_2'  
     e( 10 - 10) =     13.93518  eV     1   --> A_2  G_2 D_1'  

 **************************************************************************

 **************************************************************************

                    xk=(   0.00000,   0.06667,   0.00000  )

     Band symmetry, C_4v (4mm)  point group:

     e(  1 -  1) =     -5.73861  eV     1   --> A_1  G_1 D_1   
     e(  2 -  2) =      6.07556  eV     1   --> B_2  G_4 D_2'  
     e(  3 -  4) =      6.12377  eV     2   --> E    G_5 D_5   
     e(  5 -  5) =      8.71935  eV     1   --> A_1  G_1 D_1   
     e(  6 -  7) =      8.87322  eV     2   --> E    G_5 D_5   
     e(  8 -  8) =      9.69250  eV     1   --> B_2  G_4 D_2'  
     e(  9 -  9) =     13.77505  eV     1   --> B_2  G_4 D_2'  
     e( 10 - 10) =     13.95134  eV     1   --> A_2  G_2 D_1'  

 **************************************************************************

 **************************************************************************

                    xk=(   0.00000,   0.10000,   0.00000  )

     Band symmetry, C_4v (4mm)  point group:

     e(  1 -  1) =     -5.71430  eV     1   --> A_1  G_1 D_1   
     e(  2 -  2) =      5.92546  eV     1   --> B_2  G_4 D_2'  
     e(  3 -  4) =      6.02986  eV     2   --> E    G_5 D_5   
     e(  5 -  5) =      8.66193  eV     1   --> A_1  G_1 D_1   
     e(  6 -  7) =      8.99705  eV     2   --> E    G_5 D_5   
     e(  8 -  8) =      9.83607  eV     1   --> B_2  G_4 D_2'  
     e(  9 -  9) =     13.60224  eV     1   --> B_2  G_4 D_2'  
     e( 10 - 10) =     13.97828  eV     1   --> A_2  G_2 D_1'  

 **************************************************************************

 **************************************************************************

                    xk=(   0.00000,   0.13333,   0.00000  )

     Band symmetry, C_4v (4mm)  point group:

     e(  1 -  1) =     -5.68028  eV     1   --> A_1  G_1 D_1   
     e(  2 -  2) =      5.73378  eV     1   --> B_2  G_4 D_2'  
     e(  3 -  4) =      5.91114  eV     2   --> E    G_5 D_5   
     e(  5 -  5) =      8.58553  eV     1   --> A_1  G_1 D_1   
     e(  6 -  7) =      9.15755  eV     2   --> E    G_5 D_5   
     e(  8 -  8) =     10.01327  eV     1   --> B_2  G_4 D_2'  
     e(  9 -  9) =     13.39184  eV     1   --> B_2  G_4 D_2'  
     e( 10 - 10) =     14.01598  eV     1   --> A_2  G_2 D_1'  

 **************************************************************************

 **************************************************************************

                    xk=(   0.00000,   0.16667,   0.00000  )

     Band symmetry, C_4v (4mm)  point group:

     e(  1 -  1) =     -5.63659  eV     1   --> A_1  G_1 D_1   
     e(  2 -  2) =      5.51128  eV     1   --> B_2  G_4 D_2'  
     e(  3 -  4) =      5.77530  eV     2   --> E    G_5 D_5   
     e(  5 -  5) =      8.49341  eV     1   --> A_1  G_1 D_1   
     e(  6 -  7) =      9.34695  eV     2   --> E    G_5 D_5   
     e(  8 -  8) =     10.20609  eV     1   --> B_2  G_4 D_2'  
     e(  9 -  9) =     13.16639  eV     1   --> B_2  G_4 D_2'  
     e( 10 - 10) =     14.06444  eV     1   --> A_2  G_2 D_1'  

 **************************************************************************

 **************************************************************************

                    xk=(   0.00000,   0.20000,   0.00000  )

     Band symmetry, C_4v (4mm)  point group:

     e(  1 -  1) =     -5.58324  eV     1   --> A_1  G_1 D_1   
     e(  2 -  2) =      5.26647  eV     1   --> B_2  G_4 D_2'  
     e(  3 -  4) =      5.62861  eV     2   --> E    G_5 D_5   
     e(  5 -  5) =      8.38899  eV     1   --> A_1  G_1 D_1   
     e(  6 -  7) =      9.55888  eV     2   --> E    G_5 D_5   
     e(  8 -  8) =     10.39322  eV     1   --> B_2  G_4 D_2'  
     e(  9 -  9) =     12.95103  eV     1   --> B_2  G_4 D_2'  
     e( 10 - 10) =     14.12369  eV     1   --> A_2  G_2 D_1'  

 **************************************************************************

 **************************************************************************

                    xk=(   0.00000,   0.23333,   0.00000  )

     Band symmetry, C_4v (4mm)  point group:

     e(  1 -  1) =     -5.52027  eV     1   --> A_1  G_1 D_1   
     e(  2 -  2) =      5.00564  eV     1   --> B_2  G_4 D_2'  
     e(  3 -  4) =      5.47583  eV     2   --> E    G_5 D_5   
     e(  5 -  5) =      8.27556  eV     1   --> A_1  G_1 D_1   
     e(  6 -  7) =      9.78842  eV     2   --> E    G_5 D_5   
     e(  8 -  8) =     10.54670  eV     1   --> B_2  G_4 D_2'  
     e(  9 -  9) =     12.77669  eV     1   --> B_2  G_4 D_2'  
     e( 10 - 10) =     14.19367  eV     1   --> A_2  G_2 D_1'  

 **************************************************************************

 **************************************************************************

                    xk=(   0.00000,   0.26667,   0.00000  )

     Band symmetry, C_4v (4mm)  point group:

     e(  1 -  1) =     -5.44772  eV     1   --> A_1  G_1 D_1   
     e(  2 -  2) =      4.73329  eV     1   --> B_2  G_4 D_2'  
     e(  3 -  4) =      5.32050  eV     2   --> E    G_5 D_5   
     e(  5 -  5) =      8.15617  eV     1   --> A_1  G_1 D_1   
     e(  6 -  7) =     10.03194  eV     2   --> E    G_5 D_5   
     e(  8 -  8) =     10.63141  eV     1   --> B_2  G_4 D_2'  
     e(  9 -  9) =     12.68084  eV     1   --> B_2  G_4 D_2'  
     e( 10 - 10) =     14.27440  eV     1   --> A_2  G_2 D_1'  

 **************************************************************************

 **************************************************************************

                    xk=(   0.00000,   0.30000,   0.00000  )

     Band symmetry, C_4v (4mm)  point group:

     e(  1 -  1) =     -5.36562  eV     1   --> A_1  G_1 D_1   
     e(  2 -  2) =      4.45262  eV     1   --> B_2  G_4 D_2'  
     e(  3 -  4) =      5.16521  eV     2   --> E    G_5 D_5   
     e(  5 -  5) =      8.03347  eV     1   --> A_1  G_1 D_1   
     e(  6 -  7) =     10.28666  eV     2   --> E    G_5 D_5   
     e(  8 -  8) =     10.61798  eV     1   --> B_2  G_4 D_2'  
     e(  9 -  9) =     12.69463  eV     1   --> B_2  G_4 D_2'  
     e( 10 - 10) =     14.36586  eV     1   --> A_2  G_2 D_1'  

 **************************************************************************

 **************************************************************************

                    xk=(   0.00000,   0.33333,   0.00000  )

     Band symmetry, C_4v (4mm)  point group:

     e(  1 -  1) =     -5.27405  eV     1   --> A_1  G_1 D_1   
     e(  2 -  2) =      4.16590  eV     1   --> B_2  G_4 D_2'  
     e(  3 -  4) =      5.01187  eV     2   --> E    G_5 D_5   
     e(  5 -  5) =      7.90978  eV     1   --> A_1  G_1 D_1   
     e(  6 -  6) =     10.50583  eV     1   --> B_2  G_4 D_2'  
     e(  7 -  8) =     10.55054  eV     2   --> E    G_5 D_5   
     e(  9 -  9) =     12.81995  eV     1   --> B_2  G_4 D_2'  
     e( 10 - 10) =     14.46805  eV     1   --> A_2  G_2 D_1'  

 **************************************************************************

 **************************************************************************

                    xk=(   0.00000,   0.36667,   0.00000  )

     Band symmetry, C_4v (4mm)  point group:

     e(  1 -  1) =     -5.17305  eV     1   --> A_1  G_1 D_1   
     e(  2 -  2) =      3.87475  eV     1   --> B_2  G_4 D_2'  
     e(  3 -  4) =      4.86194  eV     2   --> E    G_5 D_5   
     e(  5 -  5) =      7.78706  eV     1   --> A_1  G_1 D_1   
     e(  6 -  6) =     10.32156  eV     1   --> B_2  G_4 D_2'  
     e(  7 -  8) =     10.82198  eV     2   --> E    G_5 D_5   
     e(  9 -  9) =     13.03119  eV     1   --> B_2  G_4 D_2'  
     e( 10 - 10) =     14.58096  eV     1   --> A_2  G_2 D_1'  

 **************************************************************************

 **************************************************************************

                    xk=(   0.00000,   0.40000,   0.00000  )

     Band symmetry, C_4v (4mm)  point group:

     e(  1 -  1) =     -5.06270  eV     1   --> A_1  G_1 D_1   
     e(  2 -  2) =      3.58041  eV     1   --> B_2  G_4 D_2'  
     e(  3 -  4) =      4.71650  eV     2   --> E    G_5 D_5   
     e(  5 -  5) =      7.66700  eV     1   --> A_1  G_1 D_1   
     e(  6 -  6) =     10.09527  eV     1   --> B_2  G_4 D_2'  
     e(  7 -  8) =     11.09978  eV     2   --> E    G_5 D_5   
     e(  9 -  9) =     13.29890  eV     1   --> B_2  G_4 D_2'  
     e( 10 - 10) =     14.70459  eV     1   --> A_2  G_2 D_1'  

 **************************************************************************

 **************************************************************************

                    xk=(   0.00000,   0.43333,   0.00000  )

     Band symmetry, C_4v (4mm)  point group:

     e(  1 -  1) =     -4.94307  eV     1   --> A_1  G_1 D_1   
     e(  2 -  2) =      3.28377  eV     1   --> B_2  G_4 D_2'  
     e(  3 -  4) =      4.57639  eV     2   --> E    G_5 D_5   
     e(  5 -  5) =      7.55097  eV     1   --> A_1  G_1 D_1   
     e(  6 -  6) =      9.84832  eV     1   --> B_2  G_4 D_2'  
     e(  7 -  8) =     11.38297  eV     2   --> E    G_5 D_5   
     e(  9 -  9) =     13.60206  eV     1   --> B_2  G_4 D_2'  
     e( 10 - 10) =     14.83889  eV     1   --> A_2  G_2 D_1'  

 **************************************************************************

 **************************************************************************

                    xk=(   0.00000,   0.46667,   0.00000  )

     Band symmetry, C_4v (4mm)  point group:

     e(  1 -  1) =     -4.81424  eV     1   --> A_1  G_1 D_1   
     e(  2 -  2) =      2.98555  eV     1   --> B_2  G_4 D_2'  
     e(  3 -  4) =      4.44227  eV     2   --> E    G_5 D_5   
     e(  5 -  5) =      7.44019  eV     1   --> A_1  G_1 D_1   
     e(  6 -  6) =      9.59387  eV     1   --> B_2  G_4 D_2'  
     e(  7 -  8) =     11.67080  eV     2   --> E    G_5 D_5   
     e(  9 -  9) =     13.92767  eV     1   --> B_2  G_4 D_2'  
     e( 10 - 10) =     14.98387  eV     1   --> A_2  G_2 D_1'  

 **************************************************************************

 **************************************************************************

                    xk=(   0.00000,   0.50000,   0.00000  )

     Band symmetry, C_4v (4mm)  point group:

     e(  1 -  1) =     -4.67631  eV     1   --> A_1  G_1 D_1   
     e(  2 -  2) =      2.68633  eV     1   --> B_2  G_4 D_2'  
     e(  3 -  4) =      4.31468  eV     2   --> E    G_5 D_5   
     e(  5 -  5) =      7.33564  eV     1   --> A_1  G_1 D_1   
     e(  6 -  6) =      9.33983  eV     1   --> B_2  G_4 D_2'  
     e(  7 -  8) =     11.96266  eV     2   --> E    G_5 D_5   
     e(  9 -  9) =     14.26771  eV     1   --> B_2  G_4 D_2'  
     e( 10 - 10) =     15.13951  eV     1   --> A_2  G_2 D_1'  

 **************************************************************************

 **************************************************************************

                    xk=(   0.00000,   0.53333,   0.00000  )

     Band symmetry, C_4v (4mm)  point group:

     e(  1 -  1) =     -4.52939  eV     1   --> A_1  G_1 D_1   
     e(  2 -  2) =      2.38664  eV     1   --> B_2  G_4 D_2'  
     e(  3 -  4) =      4.19402  eV     2   --> E    G_5 D_5   
     e(  5 -  5) =      7.23819  eV     1   --> A_1  G_1 D_1   
     e(  6 -  6) =      9.09113  eV     1   --> B_2  G_4 D_2'  
     e(  7 -  8) =     12.25809  eV     2   --> E    G_5 D_5   
     e(  9 -  9) =     14.61700  eV     1   --> B_2  G_4 D_2'  
     e( 10 - 10) =     15.30578  eV     1   --> A_2  G_2 D_1'  

 **************************************************************************

 **************************************************************************

                    xk=(   0.00000,   0.56667,   0.00000  )

     Band symmetry, C_4v (4mm)  point group:

     e(  1 -  1) =     -4.37358  eV     1   --> A_1  G_1 D_1   
     e(  2 -  2) =      2.08693  eV     1   --> B_2  G_4 D_2'  
     e(  3 -  4) =      4.08065  eV     2   --> E    G_5 D_5   
     e(  5 -  5) =      7.14857  eV     1   --> A_1  G_1 D_1   
     e(  6 -  6) =      8.85091  eV     1   --> B_2  G_4 D_2'  
     e(  7 -  8) =     12.55672  eV     2   --> E    G_5 D_5   
     e(  9 -  9) =     14.97193  eV     1   --> B_2  G_4 D_2'  
     e( 10 - 10) =     15.48267  eV     1   --> A_2  G_2 D_1'  

 **************************************************************************

 **************************************************************************

                    xk=(   0.00000,   0.60000,   0.00000  )

     Band symmetry, C_4v (4mm)  point group:

     e(  1 -  1) =     -4.20901  eV     1   --> A_1  G_1 D_1   
     e(  2 -  2) =      1.78764  eV     1   --> B_2  G_4 D_2'  
     e(  3 -  4) =      3.97484  eV     2   --> E    G_5 D_5   
     e(  5 -  5) =      7.06743  eV     1   --> A_1  G_1 D_1   
     e(  6 -  6) =      8.62124  eV     1   --> B_2  G_4 D_2'  
     e(  7 -  8) =     12.85826  eV     2   --> E    G_5 D_5   
     e(  9 -  9) =     15.32984  eV     1   --> B_2  G_4 D_2'  
     e( 10 - 10) =     15.67014  eV     1   --> A_2  G_2 D_1'  

 **************************************************************************

 **************************************************************************

                    xk=(   0.00000,   0.63333,   0.00000  )

     Band symmetry, C_4v (4mm)  point group:

     e(  1 -  1) =     -4.03581  eV     1   --> A_1  G_1 D_1   
     e(  2 -  2) =      1.48920  eV     1   --> B_2  G_4 D_2'  
     e(  3 -  4) =      3.87684  eV     2   --> E    G_5 D_5   
     e(  5 -  5) =      6.99534  eV     1   --> A_1  G_1 D_1   
     e(  6 -  6) =      8.40352  eV     1   --> B_2  G_4 D_2'  
     e(  7 -  8) =     13.16248  eV     2   --> E    G_5 D_5   
     e(  9 -  9) =     15.68863  eV     1   --> B_2  G_4 D_2'  
     e( 10 - 10) =     15.86820  eV     1   --> A_2  G_2 D_1'  

 **************************************************************************

 **************************************************************************

                    xk=(   0.00000,   0.66667,   0.00000  )

     Band symmetry, C_4v (4mm)  point group:

     e(  1 -  1) =     -3.85414  eV     1   --> A_1  G_1 D_1   
     e(  2 -  2) =      1.19204  eV     1   --> B_2  G_4 D_2'  
     e(  3 -  4) =      3.78684  eV     2   --> E    G_5 D_5   
     e(  5 -  5) =      6.93280  eV     1   --> A_1  G_1 D_1   
     e(  6 -  6) =      8.19868  eV     1   --> B_2  G_4 D_2'  
     e(  7 -  8) =     13.46919  eV     2   --> E    G_5 D_5   
     e(  9 -  9) =     16.04654  eV     1   --> B_2  G_4 D_2'  
     e( 10 - 10) =     16.07680  eV     1   --> A_2  G_2 D_1'  

 **************************************************************************

 **************************************************************************

                    xk=(   0.00000,   0.70000,   0.00000  )

     Band symmetry, C_4v (4mm)  point group:

     e(  1 -  1) =     -3.66415  eV     1   --> A_1  G_1 D_1   
     e(  2 -  2) =      0.89661  eV     1   --> B_2  G_4 D_2'  
     e(  3 -  4) =      3.70500  eV     2   --> E    G_5 D_5   
     e(  5 -  5) =      6.88024  eV     1   --> A_1  G_1 D_1   
     e(  6 -  6) =      8.00734  eV     1   --> B_2  G_4 D_2'  
     e(  7 -  8) =     13.77821  eV     2   --> E    G_5 D_5   
     e(  9 -  9) =     16.29591  eV     1   --> A_2  G_2 D_1'  
     e( 10 - 10) =     16.40207  eV     1   --> B_2  G_4 D_2'  

 **************************************************************************

 **************************************************************************

                    xk=(   0.00000,   0.73333,   0.00000  )

     Band symmetry, C_4v (4mm)  point group:

     e(  1 -  1) =     -3.46602  eV     1   --> A_1  G_1 D_1   
     e(  2 -  2) =      0.60332  eV     1   --> B_2  G_4 D_2'  
     e(  3 -  4) =      3.63146  eV     2   --> E    G_5 D_5   
     e(  5 -  5) =      6.83809  eV     1   --> A_1  G_1 D_1   
     e(  6 -  6) =      7.82989  eV     1   --> B_2  G_4 D_2'  
     e(  7 -  8) =     14.08934  eV     2   --> E    G_5 D_5   
     e(  9 -  9) =     16.52550  eV     1   --> A_2  G_2 D_1'  
     e( 10 - 10) =     16.75385  eV     1   --> B_2  G_4 D_2'  

 **************************************************************************

 **************************************************************************

                    xk=(   0.00000,   0.76667,   0.00000  )

     Band symmetry, C_4v (4mm)  point group:

     e(  1 -  1) =     -3.25994  eV     1   --> A_1  G_1 D_1   
     e(  2 -  2) =      0.31261  eV     1   --> B_2  G_4 D_2'  
     e(  3 -  4) =      3.56633  eV     2   --> E    G_5 D_5   
     e(  5 -  5) =      6.80672  eV     1   --> A_1  G_1 D_1   
     e(  6 -  6) =      7.66654  eV     1   --> B_2  G_4 D_2'  
     e(  7 -  8) =     14.40225  eV     2   --> E    G_5 D_5   
     e(  9 -  9) =     16.76553  eV     1   --> A_2  G_2 D_1'  
     e( 10 - 10) =     17.10058  eV     1   --> B_2  G_4 D_2'  

 **************************************************************************

 **************************************************************************

                    xk=(   0.00000,   0.80000,   0.00000  )

     Band symmetry, C_4v (4mm)  point group:

     e(  1 -  1) =     -3.04612  eV     1   --> A_1  G_1 D_1   
     e(  2 -  2) =      0.02493  eV     1   --> B_2  G_4 D_2'  
     e(  3 -  4) =      3.50971  eV     2   --> E    G_5 D_5   
     e(  5 -  5) =      6.78647  eV     1   --> A_1  G_1 D_1   
     e(  6 -  6) =      7.51738  eV     1   --> B_2  G_4 D_2'  
     e(  7 -  8) =     14.71647  eV     2   --> E    G_5 D_5   
     e(  9 -  9) =     17.01596  eV     1   --> A_2  G_2 D_1'  
     e( 10 - 10) =     17.44103  eV     1   --> B_2  G_4 D_2'  

 **************************************************************************

 **************************************************************************

                    xk=(   0.00000,   0.83333,   0.00000  )

     Band symmetry, C_4v (4mm)  point group:

     e(  1 -  1) =     -2.82477  eV     1   --> A_1  G_1 D_1   
     e(  2 -  2) =     -0.25930  eV     1   --> B_2  G_4 D_2'  
     e(  3 -  4) =      3.46168  eV     2   --> E    G_5 D_5   
     e(  5 -  5) =      6.77768  eV     1   --> A_1  G_1 D_1   
     e(  6 -  6) =      7.38240  eV     1   --> B_2  G_4 D_2'  
     e(  7 -  8) =     15.03109  eV     2   --> E    G_5 D_5   
     e(  9 -  9) =     17.27676  eV     1   --> A_2  G_2 D_1'  
     e( 10 - 10) =     17.77385  eV     1   --> B_2  G_4 D_2'  

 **************************************************************************

 **************************************************************************

                    xk=(   0.00000,   0.86667,   0.00000  )

     Band symmetry, C_4v (4mm)  point group:

     e(  1 -  1) =     -2.59613  eV     1   --> A_1  G_1 D_1   
     e(  2 -  2) =     -0.53965  eV     1   --> B_2  G_4 D_2'  
     e(  3 -  4) =      3.42230  eV     2   --> E    G_5 D_5   
     e(  5 -  5) =      6.78066  eV     1   --> A_1  G_1 D_1   
     e(  6 -  6) =      7.26154  eV     1   --> B_2  G_4 D_2'  
     e(  7 -  8) =     15.34439  eV     2   --> E    G_5 D_5   
     e(  9 -  9) =     17.54788  eV     1   --> A_2  G_2 D_1'  
     e( 10 - 10) =     18.09759  eV     1   --> B_2  G_4 D_2'  

 **************************************************************************

 **************************************************************************

                    xk=(   0.00000,   0.90000,   0.00000  )

     Band symmetry, C_4v (4mm)  point group:

     e(  1 -  1) =     -2.36047  eV     1   --> A_1  G_1 D_1   
     e(  2 -  2) =     -0.81571  eV     1   --> B_2  G_4 D_2'  
     e(  3 -  4) =      3.39162  eV     2   --> E    G_5 D_5   
     e(  5 -  5) =      6.79571  eV     1   --> A_1  G_1 D_1   
     e(  6 -  6) =      7.15466  eV     1   --> B_2  G_4 D_2'  
     e(  7 -  8) =     15.65250  eV     2   --> E    G_5 D_5   
     e(  9 -  9) =     17.82925  eV     1   --> A_2  G_2 D_1'  
     e( 10 - 10) =     17.85350  eV     1   -->   ?

 **************************************************************************

 **************************************************************************

                    xk=(   0.00000,   0.93333,   0.00000  )

     Band symmetry, C_4v (4mm)  point group:

     e(  1 -  1) =     -2.11806  eV     1   --> A_1  G_1 D_1   
     e(  2 -  2) =     -1.08707  eV     1   --> B_2  G_4 D_2'  
     e(  3 -  4) =      3.36968  eV     2   --> E    G_5 D_5   
     e(  5 -  5) =      6.82311  eV     1   --> A_1  G_1 D_1   
     e(  6 -  6) =      7.06159  eV     1   --> B_2  G_4 D_2'  
     e(  7 -  8) =     15.94579  eV     2   --> E    G_5 D_5   
     e(  9 - 10) =     17.55447  eV     2   --> E    G_5 D_5   

 **************************************************************************

 **************************************************************************

                    xk=(   0.00000,   0.96667,   0.00000  )

     Band symmetry, C_4v (4mm)  point group:

     e(  1 -  1) =     -1.86919  eV     1   --> A_1  G_1 D_1   
     e(  2 -  2) =     -1.35335  eV     1   --> B_2  G_4 D_2'  
     e(  3 -  4) =      3.35650  eV     2   --> E    G_5 D_5   
     e(  5 -  5) =      6.86313  eV     1   --> A_1  G_1 D_1   
     e(  6 -  6) =      6.98213  eV     1   --> B_2  G_4 D_2'  
     e(  7 -  8) =     16.19474  eV     2   --> E    G_5 D_5   
     e(  9 - 10) =     17.30136  eV     2   --> E    G_5 D_5   

 **************************************************************************

 **************************************************************************

                    xk=(   0.00000,   1.00000,   0.00000  )

     zone border point and non-symmorphic group 
     symmetry decomposition not available

 **************************************************************************

 **************************************************************************

                    xk=(   0.00000,   1.00000,   0.01667  )

     zone border point and non-symmorphic group 
     symmetry decomposition not available

 **************************************************************************

 **************************************************************************

                    xk=(  -0.00000,   1.00000,   0.03333  )

     zone border point and non-symmorphic group 
     symmetry decomposition not available

 **************************************************************************

 **************************************************************************

                    xk=(   0.00000,   1.00000,   0.05000  )

     zone border point and non-symmorphic group 
     symmetry decomposition not available

 **************************************************************************

 **************************************************************************

                    xk=(   0.00000,   1.00000,   0.06667  )

     zone border point and non-symmorphic group 
     symmetry decomposition not available

 **************************************************************************

 **************************************************************************

                    xk=(   0.00000,   1.00000,   0.08333  )

     zone border point and non-symmorphic group 
     symmetry decomposition not available

 **************************************************************************

 **************************************************************************

                    xk=(   0.00000,   1.00000,   0.10000  )

     zone border point and non-symmorphic group 
     symmetry decomposition not available

 **************************************************************************

 **************************************************************************

                    xk=(   0.00000,   1.00000,   0.11667  )

     zone border point and non-symmorphic group 
     symmetry decomposition not available

 **************************************************************************

 **************************************************************************

                    xk=(   0.00000,   1.00000,   0.13333  )

     zone border point and non-symmorphic group 
     symmetry decomposition not available

 **************************************************************************

 **************************************************************************

                    xk=(   0.00000,   1.00000,   0.15000  )

     zone border point and non-symmorphic group 
     symmetry decomposition not available

 **************************************************************************

 **************************************************************************

                    xk=(   0.00000,   1.00000,   0.16667  )

     zone border point and non-symmorphic group 
     symmetry decomposition not available

 **************************************************************************

 **************************************************************************

                    xk=(   0.00000,   1.00000,   0.18333  )

     zone border point and non-symmorphic group 
     symmetry decomposition not available

 **************************************************************************

 **************************************************************************

                    xk=(   0.00000,   1.00000,   0.20000  )

     zone border point and non-symmorphic group 
     symmetry decomposition not available

 **************************************************************************

 **************************************************************************

                    xk=(  -0.00000,   1.00000,   0.21667  )

     zone border point and non-symmorphic group 
     symmetry decomposition not available

 **************************************************************************

 **************************************************************************

                    xk=(   0.00000,   1.00000,   0.23333  )

     zone border point and non-symmorphic group 
     symmetry decomposition not available

 **************************************************************************

 **************************************************************************

                    xk=(   0.00000,   1.00000,   0.25000  )

     zone border point and non-symmorphic group 
     symmetry decomposition not available

 **************************************************************************

 **************************************************************************

                    xk=(   0.00000,   1.00000,   0.26667  )

     zone border point and non-symmorphic group 
     symmetry decomposition not available

 **************************************************************************

 **************************************************************************

                    xk=(   0.00000,   1.00000,   0.28333  )

     zone border point and non-symmorphic group 
     symmetry decomposition not available

 **************************************************************************

 **************************************************************************

                    xk=(   0.00000,   1.00000,   0.30000  )

     zone border point and non-symmorphic group 
     symmetry decomposition not available

 **************************************************************************

 **************************************************************************

                    xk=(   0.00000,   1.00000,   0.31667  )

     zone border point and non-symmorphic group 
     symmetry decomposition not available

 **************************************************************************

 **************************************************************************

                    xk=(   0.00000,   1.00000,   0.33333  )

     zone border point and non-symmorphic group 
     symmetry decomposition not available

 **************************************************************************

 **************************************************************************

                    xk=(   0.00000,   1.00000,   0.35000  )

     zone border point and non-symmorphic group 
     symmetry decomposition not available

 **************************************************************************

 **************************************************************************

                    xk=(   0.00000,   1.00000,   0.36667  )

     zone border point and non-symmorphic group 
     symmetry decomposition not available

 **************************************************************************

 **************************************************************************

                    xk=(   0.00000,   1.00000,   0.38333  )

     zone border point and non-symmorphic group 
     symmetry decomposition not available

 **************************************************************************

 **************************************************************************

                    xk=(   0.00000,   1.00000,   0.40000  )

     zone border point and non-symmorphic group 
     symmetry decomposition not available

 **************************************************************************

 **************************************************************************

                    xk=(   0.00000,   1.00000,   0.41667  )

     zone border point and non-symmorphic group 
     symmetry decomposition not available

 **************************************************************************

 **************************************************************************

                    xk=(   0.00000,   1.00000,   0.43333  )

     zone border point and non-symmorphic group 
     symmetry decomposition not available

 **************************************************************************

 **************************************************************************

                    xk=(   0.00000,   1.00000,   0.45000  )

     zone border point and non-symmorphic group 
     symmetry decomposition not available

 **************************************************************************

 **************************************************************************

                    xk=(  -0.00000,   1.00000,   0.46667  )

     zone border point and non-symmorphic group 
     symmetry decomposition not available

 **************************************************************************

 **************************************************************************

                    xk=(  -0.00000,   1.00000,   0.48333  )

     zone border point and non-symmorphic group 
     symmetry decomposition not available

 **************************************************************************

 **************************************************************************

                    xk=(   0.00000,   1.00000,   0.50000  )

     zone border point and non-symmorphic group 
     symmetry decomposition not available

 **************************************************************************

 **************************************************************************

                    xk=(   0.00000,   0.99167,   0.50833  )

     point group C_s (m)    
     there are  2 classes
     the character table:

       E     s    
A'     1.00  1.00
A''    1.00 -1.00

     the symmetry operations in each class and the name of the first element:

     E        1
                                                                 
     s        2
                                                                 

     Band symmetry, C_s (m)     point group:

     e(  1 -  1) =     -1.48803  eV     1   --> A'             
     e(  2 -  2) =     -1.41308  eV     1   --> A''            
     e(  3 -  3) =      2.32348  eV     1   --> A'             
     e(  4 -  4) =      2.38252  eV     1   --> A''            
     e(  5 -  5) =     10.42420  eV     1   --> A''            
     e(  6 -  6) =     10.50241  eV     1   --> A'             
     e(  7 -  7) =     11.20206  eV     1   --> A''            
     e(  8 -  8) =     11.24508  eV     1   --> A'             
     e(  9 -  9) =     16.71133  eV     1   --> A'             
     e( 10 - 10) =     16.84966  eV     1   --> A''            

 **************************************************************************

 **************************************************************************

                    xk=(   0.00000,   0.98333,   0.51667  )

     Band symmetry, C_s (m)     point group:

     e(  1 -  1) =     -1.52446  eV     1   --> A'             
     e(  2 -  2) =     -1.37792  eV     1   --> A''            
     e(  3 -  3) =      2.29587  eV     1   --> A'             
     e(  4 -  4) =      2.41664  eV     1   --> A''            
     e(  5 -  5) =     10.32873  eV     1   --> A''            
     e(  6 -  6) =     10.51868  eV     1   --> A'             
     e(  7 -  7) =     11.24116  eV     1   --> A''            
     e(  8 -  8) =     11.29257  eV     1   --> A'             
     e(  9 -  9) =     16.63699  eV     1   --> A'             
     e( 10 - 10) =     16.90918  eV     1   --> A''            

 **************************************************************************

 **************************************************************************

                    xk=(   0.00000,   0.97500,   0.52500  )

     Band symmetry, C_s (m)     point group:

     e(  1 -  1) =     -1.55964  eV     1   --> A'             
     e(  2 -  2) =     -1.34485  eV     1   --> A''            
     e(  3 -  3) =      2.26909  eV     1   --> A'             
     e(  4 -  4) =      2.45421  eV     1   --> A''            
     e(  5 -  5) =     10.20752  eV     1   --> A''            
     e(  6 -  6) =     10.52777  eV     1   --> A'             
     e(  7 -  7) =     11.30911  eV     1   --> A''            
     e(  8 -  8) =     11.34912  eV     1   --> A'             
     e(  9 -  9) =     16.56010  eV     1   --> A'             
     e( 10 - 10) =     16.95967  eV     1   --> A''            

 **************************************************************************

 **************************************************************************

                    xk=(   0.00000,   0.96667,   0.53333  )

     Band symmetry, C_s (m)     point group:

     e(  1 -  1) =     -1.59356  eV     1   --> A'             
     e(  2 -  2) =     -1.31386  eV     1   --> A''            
     e(  3 -  3) =      2.24316  eV     1   --> A'             
     e(  4 -  4) =      2.49514  eV     1   --> A''            
     e(  5 -  5) =     10.07251  eV     1   --> A''            
     e(  6 -  6) =     10.53093  eV     1   --> A'             
     e(  7 -  7) =     11.39403  eV     1   --> A''            
     e(  8 -  8) =     11.41344  eV     1   --> A'             
     e(  9 -  9) =     16.48091  eV     1   --> A'             
     e( 10 - 10) =     16.99921  eV     1   --> A''            

 **************************************************************************

 **************************************************************************

                    xk=(   0.00000,   0.95833,   0.54167  )

     Band symmetry, C_s (m)     point group:

     e(  1 -  1) =     -1.62622  eV     1   --> A'             
     e(  2 -  2) =     -1.28494  eV     1   --> A''            
     e(  3 -  3) =      2.21811  eV     1   --> A'             
     e(  4 -  4) =      2.53929  eV     1   --> A''            
     e(  5 -  5) =      9.93053  eV     1   --> A''            
     e(  6 -  6) =     10.52947  eV     1   --> A'             
     e(  7 -  7) =     11.48423  eV     1   --> A'             
     e(  8 -  8) =     11.48919  eV     1   --> A''            
     e(  9 -  9) =     16.39963  eV     1   --> A'             
     e( 10 - 10) =     17.02581  eV     1   --> A''            

 **************************************************************************

 **************************************************************************

                    xk=(   0.00000,   0.95000,   0.55000  )

     Band symmetry, C_s (m)     point group:

     e(  1 -  1) =     -1.65762  eV     1   --> A'             
     e(  2 -  2) =     -1.25803  eV     1   --> A''            
     e(  3 -  3) =      2.19393  eV     1   --> A'             
     e(  4 -  4) =      2.58654  eV     1   --> A''            
     e(  5 -  5) =      9.78531  eV     1   --> A''            
     e(  6 -  6) =     10.52450  eV     1   --> A'             
     e(  7 -  7) =     11.56030  eV     1   --> A'             
     e(  8 -  8) =     11.59096  eV     1   --> A''            
     e(  9 -  9) =     16.31644  eV     1   --> A'             
     e( 10 - 10) =     17.03769  eV     1   --> A''            

 **************************************************************************

 **************************************************************************

                    xk=(   0.00000,   0.94167,   0.55833  )

     Band symmetry, C_s (m)     point group:

     e(  1 -  1) =     -1.68775  eV     1   --> A'             
     e(  2 -  2) =     -1.23310  eV     1   --> A''            
     e(  3 -  3) =      2.17064  eV     1   --> A'             
     e(  4 -  4) =      2.63672  eV     1   --> A''            
     e(  5 -  5) =      9.63896  eV     1   --> A''            
     e(  6 -  6) =     10.51698  eV     1   --> A'             
     e(  7 -  7) =     11.64069  eV     1   --> A'             
     e(  8 -  8) =     11.69733  eV     1   --> A''            
     e(  9 -  9) =     16.23150  eV     1   --> A'             
     e( 10 - 10) =     17.03353  eV     1   --> A''            

 **************************************************************************

 **************************************************************************

                    xk=(   0.00000,   0.93333,   0.56667  )

     Band symmetry, C_s (m)     point group:

     e(  1 -  1) =     -1.71662  eV     1   --> A'             
     e(  2 -  2) =     -1.21006  eV     1   --> A''            
     e(  3 -  3) =      2.14827  eV     1   --> A'             
     e(  4 -  4) =      2.68963  eV     1   --> A''            
     e(  5 -  5) =      9.49281  eV     1   --> A''            
     e(  6 -  6) =     10.50766  eV     1   --> A'             
     e(  7 -  7) =     11.72461  eV     1   --> A'             
     e(  8 -  8) =     11.80711  eV     1   --> A''            
     e(  9 -  9) =     16.14494  eV     1   --> A'             
     e( 10 - 10) =     17.01276  eV     1   --> A''            

 **************************************************************************

 **************************************************************************

                    xk=(   0.00000,   0.92500,   0.57500  )

     Band symmetry, C_s (m)     point group:

     e(  1 -  1) =     -1.74422  eV     1   --> A'             
     e(  2 -  2) =     -1.18886  eV     1   --> A''            
     e(  3 -  3) =      2.12681  eV     1   --> A'             
     e(  4 -  4) =      2.74506  eV     1   --> A''            
     e(  5 -  5) =      9.34771  eV     1   --> A''            
     e(  6 -  6) =     10.49711  eV     1   --> A'             
     e(  7 -  7) =     11.81144  eV     1   --> A'             
     e(  8 -  8) =     11.91957  eV     1   --> A''            
     e(  9 -  9) =     16.05688  eV     1   --> A'             
     e( 10 - 10) =     16.97563  eV     1   --> A''            

 **************************************************************************

 **************************************************************************

                    xk=(   0.00000,   0.91667,   0.58333  )

     Band symmetry, C_s (m)     point group:

     e(  1 -  1) =     -1.77055  eV     1   --> A'             
     e(  2 -  2) =     -1.16942  eV     1   --> A''            
     e(  3 -  3) =      2.10628  eV     1   --> A'             
     e(  4 -  4) =      2.80277  eV     1   --> A''            
     e(  5 -  5) =      9.20430  eV     1   --> A''            
     e(  6 -  6) =     10.48578  eV     1   --> A'             
     e(  7 -  7) =     11.90070  eV     1   --> A'             
     e(  8 -  8) =     12.03425  eV     1   --> A''            
     e(  9 -  9) =     15.96744  eV     1   --> A'             
     e( 10 - 10) =     16.92316  eV     1   --> A''            

 **************************************************************************

 **************************************************************************

                    xk=(   0.00000,   0.90833,   0.59167  )

     Band symmetry, C_s (m)     point group:

     e(  1 -  1) =     -1.79560  eV     1   --> A'             
     e(  2 -  2) =     -1.15165  eV     1   --> A''            
     e(  3 -  3) =      2.08670  eV     1   --> A'             
     e(  4 -  4) =      2.86250  eV     1   --> A''            
     e(  5 -  5) =      9.06307  eV     1   --> A''            
     e(  6 -  6) =     10.47400  eV     1   --> A'             
     e(  7 -  7) =     11.99201  eV     1   --> A'             
     e(  8 -  8) =     12.15080  eV     1   --> A''            
     e(  9 -  9) =     15.87671  eV     1   --> A'             
     e( 10 - 10) =     16.85690  eV     1   --> A''            

 **************************************************************************

 **************************************************************************

                    xk=(   0.00000,   0.90000,   0.60000  )

     Band symmetry, C_s (m)     point group:

     e(  1 -  1) =     -1.81938  eV     1   --> A'             
     e(  2 -  2) =     -1.13546  eV     1   --> A''            
     e(  3 -  3) =      2.06806  eV     1   --> A'             
     e(  4 -  4) =      2.92394  eV     1   --> A''            
     e(  5 -  5) =      8.92444  eV     1   --> A''            
     e(  6 -  6) =     10.46206  eV     1   --> A'             
     e(  7 -  7) =     12.08504  eV     1   --> A'             
     e(  8 -  8) =     12.26900  eV     1   --> A''            
     e(  9 -  9) =     15.78480  eV     1   --> A'             
     e( 10 - 10) =     16.77864  eV     1   --> A''            

 **************************************************************************

 **************************************************************************

                    xk=(   0.00000,   0.89167,   0.60833  )

     Band symmetry, C_s (m)     point group:

     e(  1 -  1) =     -1.84188  eV     1   --> A'             
     e(  2 -  2) =     -1.12077  eV     1   --> A''            
     e(  3 -  3) =      2.05038  eV     1   --> A'             
     e(  4 -  4) =      2.98677  eV     1   --> A''            
     e(  5 -  5) =      8.78882  eV     1   --> A''            
     e(  6 -  6) =     10.45015  eV     1   --> A'             
     e(  7 -  7) =     12.17955  eV     1   --> A'             
     e(  8 -  8) =     12.38868  eV     1   --> A''            
     e(  9 -  9) =     15.69179  eV     1   --> A'             
     e( 10 - 10) =     16.69020  eV     1   --> A''            

 **************************************************************************

 **************************************************************************

                    xk=(   0.00000,   0.88333,   0.61667  )

     Band symmetry, C_s (m)     point group:

     e(  1 -  1) =     -1.86311  eV     1   --> A'             
     e(  2 -  2) =     -1.10749  eV     1   --> A''            
     e(  3 -  3) =      2.03367  eV     1   --> A'             
     e(  4 -  4) =      3.05064  eV     1   --> A''            
     e(  5 -  5) =      8.65658  eV     1   --> A''            
     e(  6 -  6) =     10.43843  eV     1   --> A'             
     e(  7 -  7) =     12.27531  eV     1   --> A'             
     e(  8 -  8) =     12.50969  eV     1   --> A''            
     e(  9 -  9) =     15.59779  eV     1   --> A'             
     e( 10 - 10) =     16.59324  eV     1   --> A''            

 **************************************************************************

 **************************************************************************

                    xk=(   0.00000,   0.87500,   0.62500  )

     Band symmetry, C_s (m)     point group:

     e(  1 -  1) =     -1.88305  eV     1   --> A'             
     e(  2 -  2) =     -1.09552  eV     1   --> A''            
     e(  3 -  3) =      2.01794  eV     1   --> A'             
     e(  4 -  4) =      3.11516  eV     1   --> A''            
     e(  5 -  5) =      8.52810  eV     1   --> A''            
     e(  6 -  6) =     10.42704  eV     1   --> A'             
     e(  7 -  7) =     12.37212  eV     1   --> A'             
     e(  8 -  8) =     12.63193  eV     1   --> A''            
     e(  9 -  9) =     15.50287  eV     1   --> A'             
     e( 10 - 10) =     16.48925  eV     1   --> A''            

 **************************************************************************

 **************************************************************************

                    xk=(   0.00000,   0.86667,   0.63333  )

     Band symmetry, C_s (m)     point group:

     e(  1 -  1) =     -1.90172  eV     1   --> A'             
     e(  2 -  2) =     -1.08478  eV     1   --> A''            
     e(  3 -  3) =      2.00319  eV     1   --> A'             
     e(  4 -  4) =      3.17990  eV     1   --> A''            
     e(  5 -  5) =      8.40381  eV     1   --> A''            
     e(  6 -  6) =     10.41608  eV     1   --> A'             
     e(  7 -  7) =     12.46982  eV     1   --> A'             
     e(  8 -  8) =     12.75529  eV     1   --> A''            
     e(  9 -  9) =     15.40715  eV     1   --> A'             
     e( 10 - 10) =     16.37947  eV     1   --> A''            

 **************************************************************************

 **************************************************************************

                    xk=(   0.00000,   0.85833,   0.64167  )

     Band symmetry, C_s (m)     point group:

     e(  1 -  1) =     -1.91910  eV     1   --> A'             
     e(  2 -  2) =     -1.07518  eV     1   --> A''            
     e(  3 -  3) =      1.98943  eV     1   --> A'             
     e(  4 -  4) =      3.24438  eV     1   --> A''            
     e(  5 -  5) =      8.28412  eV     1   --> A''            
     e(  6 -  6) =     10.40563  eV     1   --> A'             
     e(  7 -  7) =     12.56822  eV     1   --> A'             
     e(  8 -  8) =     12.87970  eV     1   --> A''            
     e(  9 -  9) =     15.31073  eV     1   --> A'             
     e( 10 - 10) =     16.26495  eV     1   --> A''            

 **************************************************************************

 **************************************************************************

                    xk=(   0.00000,   0.85000,   0.65000  )

     Band symmetry, C_s (m)     point group:

     e(  1 -  1) =     -1.93520  eV     1   --> A'             
     e(  2 -  2) =     -1.06664  eV     1   --> A''            
     e(  3 -  3) =      1.97666  eV     1   --> A'             
     e(  4 -  4) =      3.30812  eV     1   --> A''            
     e(  5 -  5) =      8.16952  eV     1   --> A''            
     e(  6 -  6) =     10.39576  eV     1   --> A'             
     e(  7 -  7) =     12.66718  eV     1   --> A'             
     e(  8 -  8) =     13.00507  eV     1   --> A''            
     e(  9 -  9) =     15.21373  eV     1   --> A'             
     e( 10 - 10) =     16.14657  eV     1   --> A''            

 **************************************************************************

 **************************************************************************

                    xk=(   0.00000,   0.84167,   0.65833  )

     Band symmetry, C_s (m)     point group:

     e(  1 -  1) =     -1.95002  eV     1   --> A'             
     e(  2 -  2) =     -1.05909  eV     1   --> A''            
     e(  3 -  3) =      1.96490  eV     1   --> A'             
     e(  4 -  4) =      3.37053  eV     1   --> A''            
     e(  5 -  5) =      8.06049  eV     1   --> A''            
     e(  6 -  6) =     10.38653  eV     1   --> A'             
     e(  7 -  7) =     12.76649  eV     1   --> A'             
     e(  8 -  8) =     13.13132  eV     1   --> A''            
     e(  9 -  9) =     15.11630  eV     1   --> A'             
     e( 10 - 10) =     16.02504  eV     1   --> A''            

 **************************************************************************

 **************************************************************************

                    xk=(   0.00000,   0.83333,   0.66667  )

     Band symmetry, C_s (m)     point group:

     e(  1 -  1) =     -1.96355  eV     1   --> A'             
     e(  2 -  2) =     -1.05244  eV     1   --> A''            
     e(  3 -  3) =      1.95414  eV     1   --> A'             
     e(  4 -  4) =      3.43104  eV     1   --> A''            
     e(  5 -  5) =      7.95762  eV     1   --> A''            
     e(  6 -  6) =     10.37798  eV     1   --> A'             
     e(  7 -  7) =     12.86598  eV     1   --> A'             
     e(  8 -  8) =     13.25836  eV     1   --> A''            
     e(  9 -  9) =     15.01860  eV     1   --> A'             
     e( 10 - 10) =     15.90101  eV     1   --> A''            

 **************************************************************************

 **************************************************************************

                    xk=(   0.00000,   0.82500,   0.67500  )

     Band symmetry, C_s (m)     point group:

     e(  1 -  1) =     -1.97580  eV     1   --> A'             
     e(  2 -  2) =     -1.04663  eV     1   --> A''            
     e(  3 -  3) =      1.94439  eV     1   --> A'             
     e(  4 -  4) =      3.48899  eV     1   --> A''            
     e(  5 -  5) =      7.86150  eV     1   --> A''            
     e(  6 -  6) =     10.37015  eV     1   --> A'             
     e(  7 -  7) =     12.96540  eV     1   --> A'             
     e(  8 -  8) =     13.38610  eV     1   --> A''            
     e(  9 -  9) =     14.92085  eV     1   --> A'             
     e( 10 - 10) =     15.77498  eV     1   --> A''            

 **************************************************************************

 **************************************************************************

                    xk=(   0.00000,   0.81667,   0.68333  )

     Band symmetry, C_s (m)     point group:

     e(  1 -  1) =     -1.98676  eV     1   --> A'             
     e(  2 -  2) =     -1.04161  eV     1   --> A''            
     e(  3 -  3) =      1.93566  eV     1   --> A'             
     e(  4 -  4) =      3.54369  eV     1   --> A''            
     e(  5 -  5) =      7.77277  eV     1   --> A''            
     e(  6 -  6) =     10.36308  eV     1   --> A'             
     e(  7 -  7) =     13.06444  eV     1   --> A'             
     e(  8 -  8) =     13.51443  eV     1   --> A''            
     e(  9 -  9) =     14.82333  eV     1   --> A'             
     e( 10 - 10) =     15.64742  eV     1   --> A''            

 **************************************************************************

 **************************************************************************

                    xk=(   0.00000,   0.80833,   0.69167  )

     Band symmetry, C_s (m)     point group:

     e(  1 -  1) =     -1.99643  eV     1   --> A'             
     e(  2 -  2) =     -1.03730  eV     1   --> A''            
     e(  3 -  3) =      1.92794  eV     1   --> A'             
     e(  4 -  4) =      3.59442  eV     1   --> A''            
     e(  5 -  5) =      7.69211  eV     1   --> A''            
     e(  6 -  6) =     10.35678  eV     1   --> A'             
     e(  7 -  7) =     13.16270  eV     1   --> A'             
     e(  8 -  8) =     13.64321  eV     1   --> A''            
     e(  9 -  9) =     14.72644  eV     1   --> A'             
     e( 10 - 10) =     15.51875  eV     1   --> A''            

 **************************************************************************

 **************************************************************************

                    xk=(   0.00000,   0.80000,   0.70000  )

     Band symmetry, C_s (m)     point group:

     e(  1 -  1) =     -2.00481  eV     1   --> A'             
     e(  2 -  2) =     -1.03367  eV     1   --> A''            
     e(  3 -  3) =      1.92125  eV     1   --> A'             
     e(  4 -  4) =      3.64043  eV     1   --> A''            
     e(  5 -  5) =      7.62024  eV     1   --> A''            
     e(  6 -  6) =     10.35129  eV     1   --> A'             
     e(  7 -  7) =     13.25958  eV     1   --> A'             
     e(  8 -  8) =     13.77222  eV     1   --> A''            
     e(  9 -  9) =     14.63076  eV     1   --> A'             
     e( 10 - 10) =     15.38942  eV     1   --> A''            

 **************************************************************************

 **************************************************************************

                    xk=(   0.00000,   0.79167,   0.70833  )

     Band symmetry, C_s (m)     point group:

     e(  1 -  1) =     -2.01190  eV     1   --> A'             
     e(  2 -  2) =     -1.03068  eV     1   --> A''            
     e(  3 -  3) =      1.91559  eV     1   --> A'             
     e(  4 -  4) =      3.68098  eV     1   --> A''            
     e(  5 -  5) =      7.55787  eV     1   --> A''            
     e(  6 -  6) =     10.34661  eV     1   --> A'             
     e(  7 -  7) =     13.35416  eV     1   --> A'             
     e(  8 -  8) =     13.90116  eV     1   --> A''            
     e(  9 -  9) =     14.53722  eV     1   --> A'             
     e( 10 - 10) =     15.25994  eV     1   --> A''            

 **************************************************************************

 **************************************************************************

                    xk=(   0.00000,   0.78333,   0.71667  )

     Band symmetry, C_s (m)     point group:

     e(  1 -  1) =     -2.01771  eV     1   --> A'             
     e(  2 -  2) =     -1.02828  eV     1   --> A''            
     e(  3 -  3) =      1.91095  eV     1   --> A'             
     e(  4 -  4) =      3.71535  eV     1   --> A''            
     e(  5 -  5) =      7.50569  eV     1   --> A''            
     e(  6 -  6) =     10.34277  eV     1   --> A'             
     e(  7 -  7) =     13.44489  eV     1   --> A'             
     e(  8 -  8) =     14.02948  eV     1   --> A''            
     e(  9 -  9) =     14.44734  eV     1   --> A'             
     e( 10 - 10) =     15.13099  eV     1   --> A''            

 **************************************************************************

 **************************************************************************

                    xk=(   0.00000,   0.77500,   0.72500  )

     Band symmetry, C_s (m)     point group:

     e(  1 -  1) =     -2.02222  eV     1   --> A'             
     e(  2 -  2) =     -1.02644  eV     1   --> A''            
     e(  3 -  3) =      1.90734  eV     1   --> A'             
     e(  4 -  4) =      3.74287  eV     1   --> A''            
     e(  5 -  5) =      7.46434  eV     1   --> A''            
     e(  6 -  6) =     10.33977  eV     1   --> A'             
     e(  7 -  7) =     13.52903  eV     1   --> A'             
     e(  8 -  8) =     14.15602  eV     1   --> A''            
     e(  9 -  9) =     14.36387  eV     1   --> A'             
     e( 10 - 10) =     15.00384  eV     1   --> A''            

 **************************************************************************

 **************************************************************************

                    xk=(   0.00000,   0.76667,   0.73333  )

     Band symmetry, C_s (m)     point group:

     e(  1 -  1) =     -2.02545  eV     1   --> A'             
     e(  2 -  2) =     -1.02514  eV     1   --> A''            
     e(  3 -  3) =      1.90476  eV     1   --> A'             
     e(  4 -  4) =      3.76298  eV     1   --> A''            
     e(  5 -  5) =      7.43436  eV     1   --> A''            
     e(  6 -  6) =     10.33762  eV     1   --> A'             
     e(  7 -  7) =     13.60156  eV     1   --> A'             
     e(  8 -  8) =     14.27787  eV     1   --> A''            
     e(  9 -  9) =     14.29182  eV     1   --> A'             
     e( 10 - 10) =     14.88150  eV     1   --> A''            

 **************************************************************************

 **************************************************************************

                    xk=(   0.00000,   0.75833,   0.74167  )

     Band symmetry, C_s (m)     point group:

     e(  1 -  1) =     -2.02738  eV     1   --> A'             
     e(  2 -  2) =     -1.02437  eV     1   --> A''            
     e(  3 -  3) =      1.90321  eV     1   --> A'             
     e(  4 -  4) =      3.77522  eV     1   --> A''            
     e(  5 -  5) =      7.41620  eV     1   --> A''            
     e(  6 -  6) =     10.33633  eV     1   --> A'             
     e(  7 -  7) =     13.65359  eV     1   --> A'             
     e(  8 -  8) =     14.24006  eV     1   --> A'             
     e(  9 -  9) =     14.38507  eV     1   --> A''            
     e( 10 - 10) =     14.77397  eV     1   --> A''            

 **************************************************************************

 **************************************************************************

                    xk=(   0.00000,   0.75000,   0.75000  )

     point group C_2v (mm2) 
     there are  4 classes
     the character table:

       E     C2    s_v   s_v' 
A_1    1.00  1.00  1.00  1.00
A_2    1.00  1.00 -1.00 -1.00
B_1    1.00 -1.00  1.00 -1.00
B_2    1.00 -1.00 -1.00  1.00

     the symmetry operations in each class and the name of the first element:

     E        1
                                                                 
     C2       2
                                                                 
     s_v      4
                                                                 
     s_v'     3
                                                                 

     Band symmetry, C_2v (mm2)  point group:

     e(  1 -  1) =     -2.02803  eV     1   --> A_1  D_1  S_1  
     e(  2 -  2) =     -1.02412  eV     1   --> B_1  D_3  S_3  
     e(  3 -  3) =      1.90269  eV     1   --> A_1  D_1  S_1  
     e(  4 -  4) =      3.77934  eV     1   --> A_2  D_2  S_2  
     e(  5 -  5) =      7.41011  eV     1   --> B_1  D_3  S_3  
     e(  6 -  6) =     10.33590  eV     1   --> A_1  D_1  S_1  
     e(  7 -  7) =     13.67313  eV     1   --> B_2  D_4  S_4  
     e(  8 -  8) =     14.22062  eV     1   --> A_1  D_1  S_1  
     e(  9 -  9) =     14.43794  eV     1   --> B_1  D_3  S_3  
     e( 10 - 10) =     14.72100  eV     1   --> A_2  D_2  S_2  

 **************************************************************************

 **************************************************************************

                    xk=(   0.00000,   0.72500,   0.72500  )

     Band symmetry, C_2v (mm2)  point group:

     e(  1 -  1) =     -2.14882  eV     1   --> A_1  D_1  S_1  
     e(  2 -  2) =     -0.90066  eV     1   --> B_1  D_3  S_3  
     e(  3 -  3) =      1.83158  eV     1   --> A_1  D_1  S_1  
     e(  4 -  4) =      3.86570  eV     1   --> A_2  D_2  S_2  
     e(  5 -  5) =      7.51019  eV     1   --> B_1  D_3  S_3  
     e(  6 -  6) =     10.84331  eV     1   --> A_1  D_1  S_1  
     e(  7 -  7) =     13.36702  eV     1   --> B_2  D_4  S_4  
     e(  8 -  8) =     13.90931  eV     1   --> A_1  D_1  S_1  
     e(  9 -  9) =     14.19201  eV     1   --> B_1  D_3  S_3  
     e( 10 - 10) =     14.45594  eV     1   --> A_2  D_2  S_2  

 **************************************************************************

 **************************************************************************

                    xk=(   0.00000,   0.70000,   0.70000  )

     Band symmetry, C_2v (mm2)  point group:

     e(  1 -  1) =     -2.28690  eV     1   --> A_1  D_1  S_1  
     e(  2 -  2) =     -0.76564  eV     1   --> B_1  D_3  S_3  
     e(  3 -  3) =      1.79334  eV     1   --> A_1  D_1  S_1  
     e(  4 -  4) =      3.95883  eV     1   --> A_2  D_2  S_2  
     e(  5 -  5) =      7.61812  eV     1   --> B_1  D_3  S_3  
     e(  6 -  6) =     11.35495  eV     1   --> A_1  D_1  S_1  
     e(  7 -  7) =     13.06796  eV     1   --> B_2  D_4  S_4  
     e(  8 -  8) =     13.61591  eV     1   --> A_1  D_1  S_1  
     e(  9 -  9) =     13.95032  eV     1   --> B_1  D_3  S_3  
     e( 10 - 10) =     14.20109  eV     1   --> A_2  D_2  S_2  

 **************************************************************************

 **************************************************************************

                    xk=(   0.00000,   0.67500,   0.67500  )

     Band symmetry, C_2v (mm2)  point group:

     e(  1 -  1) =     -2.44031  eV     1   --> A_1  D_1  S_1  
     e(  2 -  2) =     -0.61910  eV     1   --> B_1  D_3  S_3  
     e(  3 -  3) =      1.78707  eV     1   --> A_1  D_1  S_1  
     e(  4 -  4) =      4.05829  eV     1   --> A_2  D_2  S_2  
     e(  5 -  5) =      7.73330  eV     1   --> B_1  D_3  S_3  
     e(  6 -  6) =     11.85415  eV     1   --> A_1  D_1  S_1  
     e(  7 -  7) =     12.77671  eV     1   --> B_2  D_4  S_4  
     e(  8 -  8) =     13.35543  eV     1   --> A_1  D_1  S_1  
     e(  9 -  9) =     13.71451  eV     1   --> B_1  D_3  S_3  
     e( 10 - 10) =     13.95760  eV     1   --> A_2  D_2  S_2  

 **************************************************************************

 **************************************************************************

                    xk=(   0.00000,   0.65000,   0.65000  )

     Band symmetry, C_2v (mm2)  point group:

     e(  1 -  1) =     -2.60643  eV     1   --> A_1  D_1  S_1  
     e(  2 -  2) =     -0.46112  eV     1   --> B_1  D_3  S_3  
     e(  3 -  3) =      1.81092  eV     1   --> A_1  D_1  S_1  
     e(  4 -  4) =      4.16354  eV     1   --> A_2  D_2  S_2  
     e(  5 -  5) =      7.85500  eV     1   --> B_1  D_3  S_3  
     e(  6 -  6) =     12.27596  eV     1   --> A_1  D_1  S_1  
     e(  7 -  7) =     12.49387  eV     1   --> B_2  D_4  S_4  
     e(  8 -  8) =     13.19096  eV     1   --> A_1  D_1  S_1  
     e(  9 -  9) =     13.48607  eV     1   --> B_1  D_3  S_3  
     e( 10 - 10) =     13.72652  eV     1   --> A_2  D_2  S_2  

 **************************************************************************

 **************************************************************************

                    xk=(   0.00000,   0.62500,   0.62500  )

     Band symmetry, C_2v (mm2)  point group:

     e(  1 -  1) =     -2.78234  eV     1   --> A_1  D_1  S_1  
     e(  2 -  2) =     -0.29175  eV     1   --> B_1  D_3  S_3  
     e(  3 -  3) =      1.86252  eV     1   --> A_1  D_1  S_1  
     e(  4 -  4) =      4.27398  eV     1   --> A_2  D_2  S_2  
     e(  5 -  5) =      7.98232  eV     1   --> B_1  D_3  S_3  
     e(  6 -  6) =     12.21989  eV     1   --> B_2  D_4  S_4  
     e(  7 -  7) =     12.40766  eV     1   --> A_1  D_1  S_1  
     e(  8 -  8) =     13.26641  eV     1   --> B_1  D_3  S_3  
     e(  9 -  9) =     13.33297  eV     1   --> A_1  D_1  S_1  
     e( 10 - 10) =     13.50889  eV     1   --> A_2  D_2  S_2  

 **************************************************************************

 **************************************************************************

                    xk=(   0.00000,   0.60000,   0.60000  )

     Band symmetry, C_2v (mm2)  point group:

     e(  1 -  1) =     -2.96512  eV     1   --> A_1  D_1  S_1  
     e(  2 -  2) =     -0.11107  eV     1   --> B_1  D_3  S_3  
     e(  3 -  3) =      1.93935  eV     1   --> A_1  D_1  S_1  
     e(  4 -  4) =      4.38893  eV     1   --> A_2  D_2  S_2  
     e(  5 -  5) =      8.11417  eV     1   --> B_1  D_3  S_3  
     e(  6 -  6) =     11.95515  eV     1   --> B_2  D_4  S_4  
     e(  7 -  7) =     12.25804  eV     1   --> A_1  D_1  S_1  
     e(  8 -  8) =     13.05695  eV     1   --> B_1  D_3  S_3  
     e(  9 -  9) =     13.30570  eV     1   --> A_2  D_2  S_2  
     e( 10 - 10) =     13.76971  eV     1   --> A_1  D_1  S_1  

 **************************************************************************

 **************************************************************************

                    xk=(   0.00000,   0.57500,   0.57500  )

     Band symmetry, C_2v (mm2)  point group:

     e(  1 -  1) =     -3.15203  eV     1   --> A_1  D_1  S_1  
     e(  2 -  2) =      0.08082  eV     1   --> B_1  D_3  S_3  
     e(  3 -  3) =      2.03890  eV     1   --> A_1  D_1  S_1  
     e(  4 -  4) =      4.50762  eV     1   --> A_2  D_2  S_2  
     e(  5 -  5) =      8.24920  eV     1   --> B_1  D_3  S_3  
     e(  6 -  6) =     11.69996  eV     1   --> B_2  D_4  S_4  
     e(  7 -  7) =     12.03600  eV     1   --> A_1  D_1  S_1  
     e(  8 -  8) =     12.85913  eV     1   --> B_1  D_3  S_3  
     e(  9 -  9) =     13.11797  eV     1   --> A_2  D_2  S_2  
     e( 10 - 10) =     14.28800  eV     1   --> A_1  D_1  S_1  

 **************************************************************************

 **************************************************************************

                    xk=(   0.00000,   0.55000,   0.55000  )

     Band symmetry, C_2v (mm2)  point group:

     e(  1 -  1) =     -3.34061  eV     1   --> A_1  D_1  S_1  
     e(  2 -  2) =      0.28383  eV     1   --> B_1  D_3  S_3  
     e(  3 -  3) =      2.15886  eV     1   --> A_1  D_1  S_1  
     e(  4 -  4) =      4.62918  eV     1   --> A_2  D_2  S_2  
     e(  5 -  5) =      8.38577  eV     1   --> B_1  D_3  S_3  
     e(  6 -  6) =     11.45458  eV     1   --> B_2  D_4  S_4  
     e(  7 -  7) =     11.80141  eV     1   --> A_1  D_1  S_1  
     e(  8 -  8) =     12.67453  eV     1   --> B_1  D_3  S_3  
     e(  9 -  9) =     12.94676  eV     1   --> A_2  D_2  S_2  
     e( 10 - 10) =     14.82161  eV     1   --> A_1  D_1  S_1  

 **************************************************************************

 **************************************************************************

                    xk=(   0.00000,   0.52500,   0.52500  )

     Band symmetry, C_2v (mm2)  point group:

     e(  1 -  1) =     -3.52875  eV     1   --> A_1  D_1  S_1  
     e(  2 -  2) =      0.49784  eV     1   --> B_1  D_3  S_3  
     e(  3 -  3) =      2.29712  eV     1   --> A_1  D_1  S_1  
     e(  4 -  4) =      4.75267  eV     1   --> A_2  D_2  S_2  
     e(  5 -  5) =      8.52189  eV     1   --> B_1  D_3  S_3  
     e(  6 -  6) =     11.21921  eV     1   --> B_2  D_4  S_4  
     e(  7 -  7) =     11.56833  eV     1   --> A_1  D_1  S_1  
     e(  8 -  8) =     12.50487  eV     1   --> B_1  D_3  S_3  
     e(  9 -  9) =     12.79313  eV     1   --> A_2  D_2  S_2  
     e( 10 - 10) =     15.34640  eV     1   --> A_1  D_1  S_1  

 **************************************************************************

 **************************************************************************

                    xk=(   0.00000,   0.50000,   0.50000  )

     Band symmetry, C_2v (mm2)  point group:

     e(  1 -  1) =     -3.71466  eV     1   --> A_1  D_1  S_1  
     e(  2 -  2) =      0.72273  eV     1   --> B_1  D_3  S_3  
     e(  3 -  3) =      2.45184  eV     1   --> A_1  D_1  S_1  
     e(  4 -  4) =      4.87702  eV     1   --> A_2  D_2  S_2  
     e(  5 -  5) =      8.65513  eV     1   --> B_1  D_3  S_3  
     e(  6 -  6) =     10.99404  eV     1   --> B_2  D_4  S_4  
     e(  7 -  7) =     11.34132  eV     1   --> A_1  D_1  S_1  
     e(  8 -  8) =     12.35204  eV     1   --> B_1  D_3  S_3  
     e(  9 -  9) =     12.65818  eV     1   --> A_2  D_2  S_2  
     e( 10 - 10) =     15.84156  eV     1   --> A_1  D_1  S_1  

 **************************************************************************

 **************************************************************************

                    xk=(   0.00000,   0.47500,   0.47500  )

     Band symmetry, C_2v (mm2)  point group:

     e(  1 -  1) =     -3.89683  eV     1   --> A_1  D_1  S_1  
     e(  2 -  2) =      0.95836  eV     1   --> B_1  D_3  S_3  
     e(  3 -  3) =      2.62133  eV     1   --> A_1  D_1  S_1  
     e(  4 -  4) =      5.00111  eV     1   --> A_2  D_2  S_2  
     e(  5 -  5) =      8.78264  eV     1   --> B_1  D_3  S_3  
     e(  6 -  6) =     10.77922  eV     1   --> B_2  D_4  S_4  
     e(  7 -  7) =     11.12225  eV     1   --> A_1  D_1  S_1  
     e(  8 -  8) =     12.21805  eV     1   --> B_1  D_3  S_3  
     e(  9 -  9) =     12.54304  eV     1   --> A_2  D_2  S_2  
     e( 10 - 10) =     16.27964  eV     1   --> A_1  D_1  S_1  

 **************************************************************************

 **************************************************************************

                    xk=(   0.00000,   0.45000,   0.45000  )

     Band symmetry, C_2v (mm2)  point group:

     e(  1 -  1) =     -4.07402  eV     1   --> A_1  D_1  S_1  
     e(  2 -  2) =      1.20455  eV     1   --> B_1  D_3  S_3  
     e(  3 -  3) =      2.80410  eV     1   --> A_1  D_1  S_1  
     e(  4 -  4) =      5.12373  eV     1   --> A_2  D_2  S_2  
     e(  5 -  5) =      8.90119  eV     1   --> B_1  D_3  S_3  
     e(  6 -  6) =     10.57487  eV     1   --> B_2  D_4  S_4  
     e(  7 -  7) =     10.91200  eV     1   --> A_1  D_1  S_1  
     e(  8 -  8) =     12.10498  eV     1   --> B_1  D_3  S_3  
     e(  9 -  9) =     12.44886  eV     1   --> A_2  D_2  S_2  
     e( 10 - 10) =     16.62481  eV     1   --> A_1  D_1  S_1  

 **************************************************************************

 **************************************************************************

                    xk=(   0.00000,   0.42500,   0.42500  )

     Band symmetry, C_2v (mm2)  point group:

     e(  1 -  1) =     -4.24518  eV     1   --> A_1  D_1  S_1  
     e(  2 -  2) =      1.46111  eV     1   --> B_1  D_3  S_3  
     e(  3 -  3) =      2.99873  eV     1   --> A_1  D_1  S_1  
     e(  4 -  4) =      5.24364  eV     1   --> A_2  D_2  S_2  
     e(  5 -  5) =      9.00731  eV     1   --> B_1  D_3  S_3  
     e(  6 -  6) =     10.38112  eV     1   --> B_2  D_4  S_4  
     e(  7 -  7) =     10.71098  eV     1   --> A_1  D_1  S_1  
     e(  8 -  8) =     12.01461  eV     1   --> B_1  D_3  S_3  
     e(  9 -  9) =     12.37675  eV     1   --> A_2  D_2  S_2  
     e( 10 - 10) =     16.84404  eV     1   --> A_1  D_1  S_1  

 **************************************************************************

 **************************************************************************

                    xk=(   0.00000,   0.40000,   0.40000  )

     Band symmetry, C_2v (mm2)  point group:

     e(  1 -  1) =     -4.40945  eV     1   --> A_1  D_1  S_1  
     e(  2 -  2) =      1.72780  eV     1   --> B_1  D_3  S_3  
     e(  3 -  3) =      3.20387  eV     1   --> A_1  D_1  S_1  
     e(  4 -  4) =      5.35957  eV     1   --> A_2  D_2  S_2  
     e(  5 -  5) =      9.09764  eV     1   --> B_1  D_3  S_3  
     e(  6 -  6) =     10.19806  eV     1   --> B_2  D_4  S_4  
     e(  7 -  7) =     10.51939  eV     1   --> A_1  D_1  S_1  
     e(  8 -  8) =     11.94790  eV     1   --> B_1  D_3  S_3  
     e(  9 -  9) =     12.32775  eV     1   --> A_2  D_2  S_2  
     e( 10 - 10) =     16.92955  eV     1   --> A_1  D_1  S_1  

 **************************************************************************

 **************************************************************************

                    xk=(   0.00000,   0.37500,   0.37500  )

     Band symmetry, C_2v (mm2)  point group:

     e(  1 -  1) =     -4.56613  eV     1   --> A_1  D_1  S_1  
     e(  2 -  2) =      2.00436  eV     1   --> B_1  D_3  S_3  
     e(  3 -  3) =      3.41821  eV     1   --> A_1  D_1  S_1  
     e(  4 -  4) =      5.47032  eV     1   --> A_2  D_2  S_2  
     e(  5 -  5) =      9.16941  eV     1   --> B_1  D_3  S_3  
     e(  6 -  6) =     10.02577  eV     1   --> B_2  D_4  S_4  
     e(  7 -  7) =     10.33731  eV     1   --> A_1  D_1  S_1  
     e(  8 -  8) =     11.90421  eV     1   --> B_1  D_3  S_3  
     e(  9 -  9) =     12.30280  eV     1   --> A_2  D_2  S_2  
     e( 10 - 10) =     16.45274  eV     1   --> B_1  D_3  S_3  

 **************************************************************************

 **************************************************************************

                    xk=(   0.00000,   0.35000,   0.35000  )

     Band symmetry, C_2v (mm2)  point group:

     e(  1 -  1) =     -4.71462  eV     1   --> A_1  D_1  S_1  
     e(  2 -  2) =      2.29044  eV     1   --> B_1  D_3  S_3  
     e(  3 -  3) =      3.64038  eV     1   --> A_1  D_1  S_1  
     e(  4 -  4) =      5.57475  eV     1   --> A_2  D_2  S_2  
     e(  5 -  5) =      9.22103  eV     1   --> B_1  D_3  S_3  
     e(  6 -  6) =      9.86433  eV     1   --> B_2  D_4  S_4  
     e(  7 -  7) =     10.16470  eV     1   --> A_1  D_1  S_1  
     e(  8 -  8) =     11.88020  eV     1   --> B_1  D_3  S_3  
     e(  9 -  9) =     12.30264  eV     1   --> A_2  D_2  S_2  
     e( 10 - 10) =     15.93012  eV     1   --> B_1  D_3  S_3  

[...]
     e(  6 -  6) =     11.19060  eV     1   --> A'             
     e(  7 -  7) =     11.82924  eV     1   --> A''            
     e(  8 -  8) =     12.10100  eV     1   --> A'             
     e(  9 -  9) =     14.81566  eV     1   --> A'             
     e( 10 - 10) =     16.07088  eV     1   --> A''            

 **************************************************************************

 **************************************************************************

                    xk=(   0.00000,   0.82500,   0.52500  )

     Band symmetry, C_s (m)     point group:

     e(  1 -  1) =     -2.23517  eV     1   --> A'             
     e(  2 -  2) =     -0.73297  eV     1   --> A''            
     e(  3 -  3) =      1.95291  eV     1   --> A'             
     e(  4 -  4) =      3.21097  eV     1   --> A''            
     e(  5 -  5) =      9.22536  eV     1   --> A''            
     e(  6 -  6) =     10.95151  eV     1   --> A'             
     e(  7 -  7) =     11.51134  eV     1   --> A''            
     e(  8 -  8) =     12.25661  eV     1   --> A'             
     e(  9 -  9) =     14.91536  eV     1   --> A'             
     e( 10 - 10) =     16.25102  eV     1   --> A''            

 **************************************************************************

 **************************************************************************

                    xk=(   0.00000,   0.83333,   0.50000  )

     Band symmetry, C_s (m)     point group:

     e(  1 -  1) =     -2.24178  eV     1   --> A'             
     e(  2 -  2) =     -0.71681  eV     1   --> A''            
     e(  3 -  3) =      1.99572  eV     1   --> A'             
     e(  4 -  4) =      3.12583  eV     1   --> A''            
     e(  5 -  5) =      9.53222  eV     1   --> A''            
     e(  6 -  6) =     10.68265  eV     1   --> A'             
     e(  7 -  7) =     11.20609  eV     1   --> A''            
     e(  8 -  8) =     12.45053  eV     1   --> A'             
     e(  9 -  9) =     15.01397  eV     1   --> A'             
     e( 10 - 10) =     16.42614  eV     1   --> A''            

 **************************************************************************

 **************************************************************************

                    xk=(   0.00000,   0.84167,   0.47500  )

     Band symmetry, C_s (m)     point group:

     e(  1 -  1) =     -2.24493  eV     1   --> A'             
     e(  2 -  2) =     -0.70654  eV     1   --> A''            
     e(  3 -  3) =      2.04535  eV     1   --> A'             
     e(  4 -  4) =      3.04928  eV     1   --> A''            
     e(  5 -  5) =      9.83221  eV     1   --> A''            
     e(  6 -  6) =     10.40509  eV     1   --> A'             
     e(  7 -  7) =     10.92610  eV     1   --> A''            
     e(  8 -  8) =     12.66210  eV     1   --> A'             
     e(  9 -  9) =     15.11128  eV     1   --> A'             
     e( 10 - 10) =     16.59464  eV     1   --> A''            

 **************************************************************************

 **************************************************************************

                    xk=(   0.00000,   0.85000,   0.45000  )

     Band symmetry, C_s (m)     point group:

     e(  1 -  1) =     -2.24455  eV     1   --> A'             
     e(  2 -  2) =     -0.70291  eV     1   --> A''            
     e(  3 -  3) =      2.10152  eV     1   --> A'             
     e(  4 -  4) =      2.98325  eV     1   --> A''            
     e(  5 -  5) =     10.06776  eV     1   --> A''            
     e(  6 -  6) =     10.12640  eV     1   --> A'             
     e(  7 -  7) =     10.72777  eV     1   --> A''            
     e(  8 -  8) =     12.88407  eV     1   --> A'             
     e(  9 -  9) =     15.20723  eV     1   --> A'             
     e( 10 - 10) =     16.75482  eV     1   --> A''            

 **************************************************************************

 **************************************************************************

                    xk=(   0.00000,   0.85833,   0.42500  )

     Band symmetry, C_s (m)     point group:

     e(  1 -  1) =     -2.24059  eV     1   --> A'             
     e(  2 -  2) =     -0.70657  eV     1   --> A''            
     e(  3 -  3) =      2.16390  eV     1   --> A'             
     e(  4 -  4) =      2.92927  eV     1   --> A''            
     e(  5 -  5) =      9.85003  eV     1   --> A'             
     e(  6 -  6) =     10.05896  eV     1   --> A''            
     e(  7 -  7) =     10.79011  eV     1   --> A''            
     e(  8 -  8) =     13.11327  eV     1   --> A'             
     e(  9 -  9) =     15.30183  eV     1   --> A'             
     e( 10 - 10) =     16.90483  eV     1   --> A''            

 **************************************************************************

 **************************************************************************

                    xk=(   0.00000,   0.86667,   0.40000  )

     Band symmetry, C_s (m)     point group:

     e(  1 -  1) =     -2.23300  eV     1   --> A'             
     e(  2 -  2) =     -0.71800  eV     1   --> A''            
     e(  3 -  3) =      2.23212  eV     1   --> A'             
     e(  4 -  4) =      2.88841  eV     1   --> A''            
     e(  5 -  5) =      9.57795  eV     1   --> A'             
     e(  6 -  6) =      9.84665  eV     1   --> A''            
     e(  7 -  7) =     11.07161  eV     1   --> A''            
     e(  8 -  8) =     13.34795  eV     1   --> A'             
     e(  9 -  9) =     15.39521  eV     1   --> A'             
     e( 10 - 10) =     17.04266  eV     1   --> A''            

 **************************************************************************

 **************************************************************************

                    xk=(  -0.00000,   0.87500,   0.37500  )

     Band symmetry, C_s (m)     point group:

     e(  1 -  1) =     -2.22172  eV     1   --> A'             
     e(  2 -  2) =     -0.73744  eV     1   --> A''            
     e(  3 -  3) =      2.30573  eV     1   --> A'             
     e(  4 -  4) =      2.86127  eV     1   --> A''            
     e(  5 -  5) =      9.31153  eV     1   --> A'             
     e(  6 -  6) =      9.58851  eV     1   --> A''            
     e(  7 -  7) =     11.41407  eV     1   --> A''            
     e(  8 -  8) =     13.58694  eV     1   --> A'             
     e(  9 -  9) =     15.48761  eV     1   --> A'             
     e( 10 - 10) =     17.16605  eV     1   --> A''            

 **************************************************************************

 **************************************************************************

                    xk=(  -0.00000,   0.88333,   0.35000  )

     Band symmetry, C_s (m)     point group:

     e(  1 -  1) =     -2.20673  eV     1   --> A'             
     e(  2 -  2) =     -0.76490  eV     1   --> A''            
     e(  3 -  3) =      2.38420  eV     1   --> A'             
     e(  4 -  4) =      2.84805  eV     1   --> A''            
     e(  5 -  5) =      9.05186  eV     1   --> A'             
     e(  6 -  6) =      9.32377  eV     1   --> A''            
     e(  7 -  7) =     11.77788  eV     1   --> A''            
     e(  8 -  8) =     13.82925  eV     1   --> A'             
     e(  9 -  9) =     15.57938  eV     1   --> A'             
     e( 10 - 10) =     17.27236  eV     1   --> A''            

 **************************************************************************

 **************************************************************************

                    xk=(  -0.00000,   0.89167,   0.32500  )

     Band symmetry, C_s (m)     point group:

     e(  1 -  1) =     -2.18798  eV     1   --> A'             
     e(  2 -  2) =     -0.80011  eV     1   --> A''            
     e(  3 -  3) =      2.46693  eV     1   --> A'             
     e(  4 -  4) =      2.84845  eV     1   --> A''            
     e(  5 -  5) =      8.80001  eV     1   --> A'             
     e(  6 -  6) =      9.06206  eV     1   --> A''            
     e(  7 -  7) =     12.15313  eV     1   --> A''            
     e(  8 -  8) =     14.07388  eV     1   --> A'             
     e(  9 -  9) =     15.67102  eV     1   --> A'             
     e( 10 - 10) =     17.35840  eV     1   --> A''            

 **************************************************************************

 **************************************************************************

                    xk=(   0.00000,   0.90000,   0.30000  )

     Band symmetry, C_s (m)     point group:

     e(  1 -  1) =     -2.16545  eV     1   --> A'             
     e(  2 -  2) =     -0.84258  eV     1   --> A''            
     e(  3 -  3) =      2.55318  eV     1   --> A'             
     e(  4 -  4) =      2.86179  eV     1   --> A''            
     e(  5 -  5) =      8.55699  eV     1   --> A'             
     e(  6 -  6) =      8.80706  eV     1   --> A''            
     e(  7 -  7) =     12.53591  eV     1   --> A''            
     e(  8 -  8) =     14.31968  eV     1   --> A'             
     e(  9 -  9) =     15.76324  eV     1   --> A'             
     e( 10 - 10) =     17.42058  eV     1   --> A''            

 **************************************************************************

 **************************************************************************

                    xk=(   0.00000,   0.90833,   0.27500  )

     Band symmetry, C_s (m)     point group:

     e(  1 -  1) =     -2.13914  eV     1   --> A'             
     e(  2 -  2) =     -0.89160  eV     1   --> A''            
     e(  3 -  3) =      2.64210  eV     1   --> A'             
     e(  4 -  4) =      2.88698  eV     1   --> A''            
     e(  5 -  5) =      8.32394  eV     1   --> A'             
     e(  6 -  6) =      8.56080  eV     1   --> A''            
     e(  7 -  7) =     12.92404  eV     1   --> A''            
     e(  8 -  8) =     14.56523  eV     1   --> A'             
     e(  9 -  9) =     15.85698  eV     1   --> A'             
     e( 10 - 10) =     17.45553  eV     1   --> A''            

 **************************************************************************

 **************************************************************************

                    xk=(   0.00000,   0.91667,   0.25000  )

     Band symmetry, C_s (m)     point group:

     e(  1 -  1) =     -2.10905  eV     1   --> A'             
     e(  2 -  2) =     -0.94634  eV     1   --> A''            
     e(  3 -  3) =      2.73265  eV     1   --> A'             
     e(  4 -  4) =      2.92260  eV     1   --> A''            
     e(  5 -  5) =      8.10210  eV     1   --> A'             
     e(  6 -  6) =      8.32479  eV     1   --> A''            
     e(  7 -  7) =     13.31578  eV     1   --> A''            
     e(  8 -  8) =     14.80859  eV     1   --> A'             
     e(  9 -  9) =     15.95362  eV     1   --> A'             
     e( 10 - 10) =     17.46186  eV     1   --> A''            

 **************************************************************************

 **************************************************************************

                    xk=(   0.00000,   0.92500,   0.22500  )

     Band symmetry, C_s (m)     point group:

     e(  1 -  1) =     -2.07519  eV     1   --> A'             
     e(  2 -  2) =     -1.00587  eV     1   --> A''            
     e(  3 -  3) =      2.82362  eV     1   --> A'             
     e(  4 -  4) =      2.96693  eV     1   --> A''            
     e(  5 -  5) =      7.89287  eV     1   --> A'             
     e(  6 -  6) =      8.10045  eV     1   --> A''            
     e(  7 -  7) =     13.70947  eV     1   --> A''            
     e(  8 -  8) =     15.04707  eV     1   --> A'             
     e(  9 -  9) =     16.05509  eV     1   --> A'             
     e( 10 - 10) =     17.44169  eV     1   --> A''            

 **************************************************************************

 **************************************************************************

                    xk=(   0.00000,   0.93333,   0.20000  )

     Band symmetry, C_s (m)     point group:

     e(  1 -  1) =     -2.03759  eV     1   --> A'             
     e(  2 -  2) =     -1.06924  eV     1   --> A''            
     e(  3 -  3) =      2.91354  eV     1   --> A'             
     e(  4 -  4) =      3.01796  eV     1   --> A''            
     e(  5 -  5) =      7.69790  eV     1   --> A'             
     e(  6 -  6) =      7.88928  eV     1   --> A''            
     e(  7 -  7) =     14.10309  eV     1   --> A''            
     e(  8 -  8) =     15.27688  eV     1   --> A'             
     e(  9 -  9) =     16.16415  eV     1   --> A'             
     e( 10 - 10) =     17.40057  eV     1   --> A''            

 **************************************************************************

 **************************************************************************

                    xk=(   0.00000,   0.94167,   0.17500  )

     Band symmetry, C_s (m)     point group:

     e(  1 -  1) =     -1.99632  eV     1   --> A'             
     e(  2 -  2) =     -1.13549  eV     1   --> A''            
     e(  3 -  3) =      3.00070  eV     1   --> A'             
     e(  4 -  4) =      3.07341  eV     1   --> A''            
     e(  5 -  5) =      7.51907  eV     1   --> A'             
     e(  6 -  6) =      7.69292  eV     1   --> A''            
     e(  7 -  7) =     14.49398  eV     1   --> A''            
     e(  8 -  8) =     15.49286  eV     1   --> A'             
     e(  9 -  9) =     16.28440  eV     1   --> A'             
     e( 10 - 10) =     17.34559  eV     1   --> A''            

 **************************************************************************

 **************************************************************************

                    xk=(   0.00000,   0.95000,   0.15000  )

     Band symmetry, C_s (m)     point group:

     e(  1 -  1) =     -1.95145  eV     1   --> A'             
     e(  2 -  2) =     -1.20375  eV     1   --> A''            
     e(  3 -  3) =      3.08311  eV     1   --> A'             
     e(  4 -  4) =      3.13076  eV     1   --> A''            
     e(  5 -  5) =      7.35852  eV     1   --> A'             
     e(  6 -  6) =      7.51325  eV     1   --> A''            
     e(  7 -  7) =     14.87821  eV     1   --> A''            
     e(  8 -  8) =     15.68894  eV     1   --> A'             
     e(  9 -  9) =     16.41960  eV     1   --> A'             
     e( 10 - 10) =     17.28383  eV     1   --> A''            

 **************************************************************************

 **************************************************************************

                    xk=(   0.00000,   0.95833,   0.12500  )

     Band symmetry, C_s (m)     point group:

     e(  1 -  1) =     -1.90307  eV     1   --> A'             
     e(  2 -  2) =     -1.27317  eV     1   --> A''            
     e(  3 -  3) =      3.15856  eV     1   --> A'             
     e(  4 -  4) =      3.18724  eV     1   --> A''            
     e(  5 -  5) =      7.21868  eV     1   --> A'             
     e(  6 -  6) =      7.35241  eV     1   --> A''            
     e(  7 -  7) =     15.24952  eV     1   --> A''            
     e(  8 -  8) =     15.85991  eV     1   --> A'             
     e(  9 -  9) =     16.57131  eV     1   --> A'             
     e( 10 - 10) =     17.22218  eV     1   --> A''            

 **************************************************************************

 **************************************************************************

                    xk=(   0.00000,   0.96667,   0.10000  )

     Band symmetry, C_s (m)     point group:

     e(  1 -  1) =     -1.85131  eV     1   --> A'             
     e(  2 -  2) =     -1.34300  eV     1   --> A''            
     e(  3 -  3) =      3.22462  eV     1   --> A'             
     e(  4 -  4) =      3.23987  eV     1   --> A''            
     e(  5 -  5) =      7.10212  eV     1   --> A'             
     e(  6 -  6) =      7.21279  eV     1   --> A''            
     e(  7 -  7) =     15.59722  eV     1   --> A''            
     e(  8 -  8) =     16.00379  eV     1   --> A'             
     e(  9 -  9) =     16.73548  eV     1   --> A'             
     e( 10 - 10) =     17.16853  eV     1   --> A''            

 **************************************************************************

 **************************************************************************

                    xk=(  -0.00000,   0.97500,   0.07500  )

     Band symmetry, C_s (m)     point group:

     e(  1 -  1) =     -1.79633  eV     1   --> A'             
     e(  2 -  2) =     -1.41257  eV     1   --> A''            
     e(  3 -  3) =      3.27890  eV     1   --> A'             
     e(  4 -  4) =      3.28555  eV     1   --> A''            
     e(  5 -  5) =      7.01146  eV     1   --> A'             
     e(  6 -  6) =      7.09693  eV     1   --> A''            
     e(  7 -  7) =     15.90265  eV     1   --> A''            
     e(  8 -  8) =     16.12186  eV     1   --> A'             
     e(  9 -  9) =     16.90059  eV     1   --> A'             
     e( 10 - 10) =     17.13381  eV     1   --> A''            

 **************************************************************************

 **************************************************************************

                    xk=(   0.00000,   0.98333,   0.05000  )

     Band symmetry, C_s (m)     point group:

     e(  1 -  1) =     -1.73832  eV     1   --> A'             
     e(  2 -  2) =     -1.48129  eV     1   --> A''            
     e(  3 -  3) =      3.31920  eV     1   --> A'             
     e(  4 -  4) =      3.32122  eV     1   --> A''            
     e(  5 -  5) =      6.94910  eV     1   --> A'             
     e(  6 -  6) =      7.00740  eV     1   --> A''            
     e(  7 -  7) =     16.13652  eV     1   --> A''            
     e(  8 -  8) =     16.21550  eV     1   --> A'             
     e(  9 -  9) =     17.04755  eV     1   --> A'             
     e( 10 - 10) =     17.13159  eV     1   --> A''            

 **************************************************************************

 **************************************************************************

                    xk=(   0.00000,   0.99167,   0.02500  )

     Band symmetry, C_s (m)     point group:

     e(  1 -  1) =     -1.67751  eV     1   --> A'             
     e(  2 -  2) =     -1.54864  eV     1   --> A''            
     e(  3 -  3) =      3.34388  eV     1   --> A'             
     e(  4 -  4) =      3.34413  eV     1   --> A''            
     e(  5 -  5) =      6.91694  eV     1   --> A'             
     e(  6 -  6) =      6.94652  eV     1   --> A''            
     e(  7 -  7) =     16.27080  eV     1   --> A''            
     e(  8 -  8) =     16.28185  eV     1   --> A'             
     e(  9 -  9) =     17.15040  eV     1   --> A'             
     e( 10 - 10) =     17.16218  eV     1   --> A''            

 **************************************************************************

 **************************************************************************

                    xk=(   0.00000,   1.00000,   0.00000  )

     zone border point and non-symmorphic group 
     symmetry decomposition not available

 **************************************************************************

     BANDS        :     15.17s CPU     17.16s WALL


   This run was terminated on:  21:10:39  16Aug2020            

=------------------------------------------------------------------------------=
   JOB DONE.
=------------------------------------------------------------------------------=
