
     Program PWSCF v.6.5 starts on 15Aug2020 at 18:21:54 

     This program is part of the open-source Quantum ESPRESSO suite
     for quantum simulation of materials; please cite
         "P. Giannozzi et al., J. Phys.:Condens. Matter 21 395502 (2009);
         "P. Giannozzi et al., J. Phys.:Condens. Matter 29 465901 (2017);
          URL http://www.quantum-espresso.org", 
     in publications or presentations arising from this work. More details at
     http://www.quantum-espresso.org/quote

     Parallel version (MPI), running on     1 processors

     MPI processes distributed on     1 nodes
     Reading input from stishovites.in

     Current dimensions of program PWSCF are:
     Max number of different atomic species (ntypx) = 10
     Max number of k-points (npk) =  40000
     Max angular momentum in pseudopotentials (lmaxx) =  3

     IMPORTANT: XC functional enforced from input :
     Exchange-correlation= PBE
                           (   1   4   3   4   0   0   0)
     Any further DFT definition will be discarded
     Please, verify this is what you really want

               file Si.pbe-n-kjpaw_psl.0.1.UPF: wavefunction(s)  3S renormalized

     Subspace diagonalization in iterative solution of the eigenvalue problem:
     a serial algorithm will be used

     Message from routine setup:
     using ibrav=0 with symmetry is DISCOURAGED, use correct ibrav instead

     G-vector sticks info
     --------------------
     sticks:   dense  smooth     PW     G-vecs:    dense   smooth      PW
     Sum        1993    1993    577                42353    42353    6649



     bravais-lattice index     =            0
     lattice parameter (alat)  =       7.8985  a.u.
     unit-cell volume          =     314.4080 (a.u.)^3
     number of atoms/cell      =            6
     number of atomic types    =            2
     number of electrons       =        32.00
     number of Kohn-Sham states=           20
     kinetic-energy cutoff     =     100.0000  Ry
     charge density cutoff     =     400.0000  Ry
     convergence threshold     =      1.0E-08
     mixing beta               =       0.7000
     number of iterations used =            8  plain     mixing
     Exchange-correlation= PBE
                           (   1   4   3   4   0   0   0)

     celldm(1)=   7.898488  celldm(2)=   0.000000  celldm(3)=   0.000000
     celldm(4)=   0.000000  celldm(5)=   0.000000  celldm(6)=   0.000000

     crystal axes: (cart. coord. in units of alat)
               a(1) = (   1.000000   0.000000   0.000000 )  
               a(2) = (   0.000000   1.000000   0.000000 )  
               a(3) = (   0.000000   0.000000   0.638060 )  

     reciprocal axes: (cart. coord. in units 2 pi/alat)
               b(1) = (  1.000000  0.000000  0.000000 )  
               b(2) = (  0.000000  1.000000  0.000000 )  
               b(3) = (  0.000000  0.000000  1.567250 )  


     PseudoPot. # 1 for Si read from file:
     ./Si.pbe-n-kjpaw_psl.0.1.UPF
     MD5 check sum: 0810ef13ebffcf5dbabd57b297315270
     Pseudo is Projector augmented-wave + core cor, Zval =  4.0
     Generated using "atomic" code by A. Dal Corso v.5.0.2 svn rev. 9415
     Shape of augmentation charge: PSQ
     Using radial grid of 1141 points,  4 beta functions with: 
                l(1) =   0
                l(2) =   0
                l(3) =   1
                l(4) =   1
     Q(r) pseudized with 0 coefficients 


     PseudoPot. # 2 for O  read from file:
     ./O.pbe-kjpaw.UPF
     MD5 check sum: c7f41d994d4e90c1781f5cd713c45011
     Pseudo is Projector augmented-wave + core cor, Zval =  6.0
     Generated using "atomic" code by A. Dal Corso (espresso distribution)
     Shape of augmentation charge: BESSEL
     Using radial grid of 1095 points,  4 beta functions with: 
                l(1) =   0
                l(2) =   0
                l(3) =   1
                l(4) =   1
     Q(r) pseudized with 0 coefficients 


     atomic species   valence    mass     pseudopotential
        Si             4.00    28.08500     Si( 1.00)
        O              6.00    15.99900     O ( 1.00)

     16 Sym. Ops., with inversion, found ( 8 have fractional translation)



   Cartesian axes

     site n.     atom                  positions (alat units)
         1           Si  tau(   1) = (   0.0000000   0.0000000   0.0000000  )
         2           Si  tau(   2) = (   0.5000000   0.5000000   0.3190301  )
         3           O   tau(   3) = (   0.3061300   0.3061300   0.0000000  )
         4           O   tau(   4) = (   0.8061300   0.1938700   0.3190301  )
         5           O   tau(   5) = (   0.1938700   0.8061300   0.3190301  )
         6           O   tau(   6) = (   0.6938700   0.6938700   0.0000000  )

     number of k points=    30  Marzari-Vanderbilt smearing, width (Ry)=  0.0050
                       cart. coord. in units 2pi/alat
        k(    1) = (   0.0000000   0.0000000   0.0000000), wk =   0.0138889
        k(    2) = (   0.0000000   0.0000000   0.1741389), wk =   0.0277778
        k(    3) = (   0.0000000   0.0000000   0.3482779), wk =   0.0277778
        k(    4) = (   0.0000000   0.0000000   0.5224168), wk =   0.0277778
        k(    5) = (   0.0000000   0.0000000   0.6965557), wk =   0.0277778
        k(    6) = (   0.0000000   0.2500000   0.0000000), wk =   0.0555556
        k(    7) = (   0.0000000   0.2500000   0.1741389), wk =   0.1111111
        k(    8) = (   0.0000000   0.2500000   0.3482779), wk =   0.1111111
        k(    9) = (   0.0000000   0.2500000   0.5224168), wk =   0.1111111
        k(   10) = (   0.0000000   0.2500000   0.6965557), wk =   0.1111111
        k(   11) = (   0.0000000  -0.5000000   0.0000000), wk =   0.0277778
        k(   12) = (   0.0000000  -0.5000000   0.1741389), wk =   0.0555556
        k(   13) = (   0.0000000  -0.5000000   0.3482779), wk =   0.0555556
        k(   14) = (   0.0000000  -0.5000000   0.5224168), wk =   0.0555556
        k(   15) = (   0.0000000  -0.5000000   0.6965557), wk =   0.0555556
        k(   16) = (   0.2500000   0.2500000   0.0000000), wk =   0.0555556
        k(   17) = (   0.2500000   0.2500000   0.1741389), wk =   0.1111111
        k(   18) = (   0.2500000   0.2500000   0.3482779), wk =   0.1111111
        k(   19) = (   0.2500000   0.2500000   0.5224168), wk =   0.1111111
        k(   20) = (   0.2500000   0.2500000   0.6965557), wk =   0.1111111
        k(   21) = (   0.2500000  -0.5000000   0.0000000), wk =   0.0555556
        k(   22) = (   0.2500000  -0.5000000   0.1741389), wk =   0.1111111
        k(   23) = (   0.2500000  -0.5000000   0.3482779), wk =   0.1111111
        k(   24) = (   0.2500000  -0.5000000   0.5224168), wk =   0.1111111
        k(   25) = (   0.2500000  -0.5000000   0.6965557), wk =   0.1111111
        k(   26) = (  -0.5000000  -0.5000000   0.0000000), wk =   0.0138889
        k(   27) = (  -0.5000000  -0.5000000   0.1741389), wk =   0.0277778
        k(   28) = (  -0.5000000  -0.5000000   0.3482779), wk =   0.0277778
        k(   29) = (  -0.5000000  -0.5000000   0.5224168), wk =   0.0277778
        k(   30) = (  -0.5000000  -0.5000000   0.6965557), wk =   0.0277778

     Dense  grid:    42353 G-vectors     FFT dimensions: (  54,  54,  36)

     Estimated max dynamical RAM per process >     119.83 MB

     Initial potential from superposition of free atoms

     starting charge   31.99892, renormalised to   32.00000
     Starting wfcs are   24 randomized atomic wfcs
     Checking if some PAW data can be deallocated... 

     total cpu time spent up to now is        5.5 secs

     Self-consistent Calculation

     iteration #  1     ecut=   100.00 Ry     beta= 0.70
     Davidson diagonalization with overlap
     ethr =  1.00E-02,  avg # of iterations =  2.8

     total cpu time spent up to now is        5.7 secs

     total energy              =    -260.13401658 Ry
     Harris-Foulkes estimate   =    -260.93476375 Ry
     estimated scf accuracy    <       1.06616404 Ry

     iteration #  2     ecut=   100.00 Ry     beta= 0.70
     Davidson diagonalization with overlap
     ethr =  3.33E-03,  avg # of iterations =  2.7

     total cpu time spent up to now is       16.6 secs

     total energy              =    -260.45797108 Ry
     Harris-Foulkes estimate   =    -260.79457247 Ry
     estimated scf accuracy    <       0.61555447 Ry

     iteration #  3     ecut=   100.00 Ry     beta= 0.70
     Davidson diagonalization with overlap
     ethr =  1.92E-03,  avg # of iterations =  2.2

     total cpu time spent up to now is       25.9 secs

     total energy              =    -260.58868620 Ry
     Harris-Foulkes estimate   =    -260.58841252 Ry
     estimated scf accuracy    <       0.00377139 Ry

     iteration #  4     ecut=   100.00 Ry     beta= 0.70
     Davidson diagonalization with overlap
     ethr =  1.18E-05,  avg # of iterations =  4.4

     total cpu time spent up to now is       37.3 secs

     total energy              =    -260.58983145 Ry
     Harris-Foulkes estimate   =    -260.58999891 Ry
     estimated scf accuracy    <       0.00039609 Ry

     iteration #  5     ecut=   100.00 Ry     beta= 0.70
     Davidson diagonalization with overlap
     ethr =  1.24E-06,  avg # of iterations =  1.9

     total cpu time spent up to now is       44.7 secs

     total energy              =    -260.58982906 Ry
     Harris-Foulkes estimate   =    -260.58985917 Ry
     estimated scf accuracy    <       0.00005956 Ry

     iteration #  6     ecut=   100.00 Ry     beta= 0.70
     Davidson diagonalization with overlap
     ethr =  1.86E-07,  avg # of iterations =  2.0

     total cpu time spent up to now is       53.9 secs

     total energy              =    -260.58984506 Ry
     Harris-Foulkes estimate   =    -260.58984525 Ry
     estimated scf accuracy    <       0.00000138 Ry

     iteration #  7     ecut=   100.00 Ry     beta= 0.70
     Davidson diagonalization with overlap
     ethr =  4.30E-09,  avg # of iterations =  2.3

     total cpu time spent up to now is       63.1 secs

     total energy              =    -260.58984538 Ry
     Harris-Foulkes estimate   =    -260.58984544 Ry
     estimated scf accuracy    <       0.00000016 Ry

     iteration #  8     ecut=   100.00 Ry     beta= 0.70
     Davidson diagonalization with overlap
     ethr =  4.88E-10,  avg # of iterations =  2.0

     total cpu time spent up to now is       61.4 secs

     End of self-consistent calculation

          k = 0.0000 0.0000 0.0000 (  5281 PWs)   bands (ev):

   -11.9727  -8.3218  -8.3218  -8.0953  -0.2910   4.1427   4.1427   4.3369
     5.1808   5.4702   7.4383   7.4383   8.0534   9.6968   9.6968  10.5752
    16.2009  17.2786  19.1103  19.1103

          k = 0.0000 0.0000 0.1741 (  5312 PWs)   bands (ev):

   -11.8076  -8.2368  -8.2368  -8.0755  -0.2300   4.2807   4.2807   4.5170
     4.7219   5.2386   6.8827   6.8827   7.4686   9.5767   9.5767  10.4271
    16.7887  18.1599  19.8251  19.8251

          k = 0.0000 0.0000 0.3483 (  5336 PWs)   bands (ev):

   -11.3290  -8.0851  -8.0102  -8.0102  -0.0907   3.9209   4.3863   4.6735
     4.6735   5.0446   5.6698   5.6698   6.4115   9.1968   9.1968   9.9590
    17.8404  20.0157  20.7183  21.4408

          k = 0.0000 0.0000 0.5224 (  5312 PWs)   bands (ev):

   -10.5923  -8.3036  -7.7287  -7.7287   0.1085   2.9817   3.6074   4.4567
     4.4567   5.2826   5.2826   5.5185   5.8779   8.5980   8.5980   9.1530
    18.5223  20.8810  21.4011  22.9063

          k = 0.0000 0.0000 0.6966 (  5336 PWs)   bands (ev):

    -9.7102  -8.8725  -7.5283  -7.5283   0.5994   1.5930   3.7473   3.7473
     3.9583   4.6842   5.8475   5.8475   6.9364   8.0069   8.0069   8.0880
    19.1888  20.1331  22.6241  23.3146

          k = 0.0000 0.2500 0.0000 (  5305 PWs)   bands (ev):

   -11.6474  -9.4358  -8.1608  -7.6445   0.1348   2.8338   4.4650   5.3040
     5.4244   6.3797   6.9295   7.5746   8.0956   8.5038   9.5928  10.1158
    17.0752  17.7987  19.2790  19.3218

          k = 0.0000 0.2500 0.1741 (  5299 PWs)   bands (ev):

   -11.4876  -9.3277  -8.0872  -7.6244   0.2395   2.9422   4.1168   5.0560
     5.6694   5.7556   6.8473   7.0936   7.3623   8.7592   9.4611  10.0718
    17.5026  18.6142  19.9462  19.9650

          k = 0.0000 0.2500 0.3483 (  5316 PWs)   bands (ev):

   -11.0264  -9.0438  -7.8987  -7.6088   0.4799   3.1539   3.2150   4.2964
     5.0286   5.9329   6.0959   6.3648   6.7077   8.8208   9.0641   9.8190
    18.2712  20.2263  21.1052  21.3369

          k = 0.0000 0.2500 0.5224 (  5311 PWs)   bands (ev):

   -10.3266  -8.7503  -7.6932  -7.6722   0.6400   2.4882   2.7699   3.7507
     4.3471   4.6906   6.4005   6.4140   6.7345   8.4936   8.6097   9.2869
    18.7895  20.5753  21.0191  21.9126

          k = 0.0000 0.2500 0.6966 (  5324 PWs)   bands (ev):

    -9.5207  -8.8671  -7.6777  -7.6072   0.8139   1.4205   2.9992   3.4056
     3.8688   4.0745   6.4159   6.6916   7.3984   8.1265   8.1850   8.6053
    19.2429  19.8902  21.2386  21.6113

          k = 0.0000-0.5000 0.0000 (  5270 PWs)   bands (ev):

   -10.7306 -10.7306  -7.8020  -7.8020   1.2503   1.2503   6.0261   6.0261
     6.0851   6.0851   6.7042   6.7042   7.8839   7.8839   9.5061   9.5061
    18.3128  18.3128  19.6854  19.6854

          k = 0.0000-0.5000 0.1741 (  5300 PWs)   bands (ev):

   -10.5882 -10.5882  -7.7586  -7.7586   1.3852   1.3852   4.7911   4.7911
     6.3352   6.3352   6.9858   6.9858   7.6510   7.6510   9.4228   9.4228
    18.8127  18.8127  20.3851  20.3851

          k = 0.0000-0.5000 0.3483 (  5292 PWs)   bands (ev):

   -10.1860 -10.1860  -7.6699  -7.6699   1.7482   1.7482   3.2809   3.2809
     5.5304   5.5304   7.1998   7.1998   7.6393   7.6393   9.2037   9.2037
    19.5433  19.5433  21.2956  21.2956

          k = 0.0000-0.5000 0.5224 (  5314 PWs)   bands (ev):

    -9.6141  -9.6141  -7.6471  -7.6471   1.9092   1.9092   2.2898   2.2898
     4.5302   4.5302   7.0073   7.0073   7.9541   7.9541   8.9797   8.9797
    19.6200  19.6200  20.7167  20.7167

          k = 0.0000-0.5000 0.6966 (  5346 PWs)   bands (ev):

    -9.0962  -9.0962  -7.7570  -7.7570   1.2594   1.2594   2.4545   2.4545
     4.0645   4.0645   6.6630   6.6630   8.2429   8.2429   8.8431   8.8431
    19.3866  19.3866  20.4797  20.4797

          k = 0.2500 0.2500 0.0000 (  5290 PWs)   bands (ev):

   -11.3430  -9.6080  -8.5099  -7.7132   0.6702   2.9568   4.1828   5.6545
     5.8244   6.5935   6.8890   7.3738   7.9982   8.0835   9.1277   9.7740
    17.3538  18.2329  19.2897  20.0604

          k = 0.2500 0.2500 0.1741 (  5308 PWs)   bands (ev):

   -11.1888  -9.4990  -8.4188  -7.6813   0.7658   2.7682   4.2890   5.1508
     5.8178   5.8316   6.9220   7.0408   7.3306   8.4928   9.0987   9.8247
    17.7915  18.9047  19.8567  20.7054

          k = 0.2500 0.2500 0.3483 (  5316 PWs)   bands (ev):

   -10.7466  -9.2126  -8.1745  -7.6292   0.9260   2.2049   3.9756   4.4111
     5.0452   5.3459   5.9827   6.7593   7.3835   8.5857   8.9715   9.7222
    18.3933  19.9153  20.9670  21.9452

          k = 0.2500 0.2500 0.5224 (  5321 PWs)   bands (ev):

   -10.0875  -8.8952  -7.8687  -7.6564   0.6629   1.7697   3.0033   3.6861
     4.1350   5.4799   5.4836   7.2579   7.3523   8.4309   8.6742   9.3652
    18.5557  19.5868  21.4045  22.5271

          k = 0.2500 0.2500 0.6966 (  5312 PWs)   bands (ev):

    -9.3661  -8.8672  -7.7504  -7.6490   0.2635   1.3278   2.9838   3.0186
     3.3730   5.3172   5.9236   7.4324   7.8669   8.1655   8.3131   8.8784
    18.5797  19.1563  21.2072  22.3773

          k = 0.2500-0.5000 0.0000 (  5286 PWs)   bands (ev):

   -10.5165 -10.5165  -8.2072  -8.2072   1.8750   1.8750   5.4281   5.4281
     6.2614   6.2614   7.1459   7.1459   7.6428   7.6428   9.1030   9.1030
    18.1013  18.1013  20.1642  20.1642

          k = 0.2500-0.5000 0.1741 (  5296 PWs)   bands (ev):

   -10.3806 -10.3806  -8.1382  -8.1382   1.8753   1.8753   4.8760   4.8760
     6.0475   6.0475   6.9566   6.9566   7.6950   7.6950   9.1845   9.1845
    18.5649  18.5649  20.7575  20.7575

          k = 0.2500-0.5000 0.3483 (  5298 PWs)   bands (ev):

   -10.0010 -10.0010  -7.9687  -7.9687   1.6625   1.6625   4.0034   4.0034
     5.0912   5.0912   6.9424   6.9424   7.9107   7.9107   9.1911   9.1911
    19.0276  19.0276  21.9752  21.9752

          k = 0.2500-0.5000 0.5224 (  5316 PWs)   bands (ev):

    -9.4780  -9.4780  -7.8070  -7.8070   0.9740   0.9740   3.4042   3.4042
     4.3752   4.3752   7.0245   7.0245   8.1470   8.1470   9.0627   9.0627
    18.7089  18.7089  21.7980  21.7980

          k = 0.2500-0.5000 0.6966 (  5308 PWs)   bands (ev):

    -9.0382  -9.0382  -7.7594  -7.7594   0.3850   0.3850   2.8122   2.8122
     4.4351   4.4351   7.0059   7.0059   8.2985   8.2985   8.9610   8.9610
    18.3416  18.3416  21.3777  21.3777

          k =-0.5000-0.5000 0.0000 (  5308 PWs)   bands (ev):

   -10.2134 -10.2134  -8.6867  -8.6867   2.7169   2.7169   4.6681   4.6681
     6.5305   6.5305   7.3102   7.3102   7.9184   7.9184   8.2993   8.2993
    17.9906  17.9906  20.6585  20.6585

          k =-0.5000-0.5000 0.1741 (  5320 PWs)   bands (ev):

   -10.0888 -10.0888  -8.5902  -8.5902   2.4651   2.4651   4.6872   4.6872
     6.2859   6.2859   6.3968   6.3968   8.3770   8.3770   8.4650   8.4650
    18.4217  18.4217  21.1749  21.1749

          k =-0.5000-0.5000 0.3483 (  5328 PWs)   bands (ev):

    -9.7491  -9.7491  -8.3304  -8.3304   1.6790   1.6790   4.2889   4.2889
     5.6279   5.6279   5.9767   5.9767   8.5814   8.5814   8.8248   8.8248
    18.7652  18.7652  22.0408  22.0408

          k =-0.5000-0.5000 0.5224 (  5324 PWs)   bands (ev):

    -9.3079  -9.3079  -8.0027  -8.0027   0.6329   0.6329   3.2202   3.2202
     5.7881   5.7881   5.9433   5.9433   8.8286   8.8286   8.8921   8.8921
    18.3038  18.3038  21.9602  21.9602

          k =-0.5000-0.5000 0.6966 (  5268 PWs)   bands (ev):

    -8.9765  -8.9765  -7.7652  -7.7652  -0.1005  -0.1005   2.4960   2.4960
     6.0200   6.0200   6.0488   6.0488   8.8254   8.8254   8.9997   8.9997
    17.8243  17.8243  21.6478  21.6478

     the Fermi energy is    14.5608 ev

!    total energy              =    -260.58984540 Ry
     Harris-Foulkes estimate   =    -260.58984540 Ry
     estimated scf accuracy    <          2.8E-09 Ry

     total all-electron energy =     -1762.324567 Ry

     The total energy is the sum of the following terms:

     one-electron contribution =     -12.16828030 Ry
     hartree contribution      =      31.60898949 Ry
     xc contribution           =     -41.48006958 Ry
     ewald contribution        =    -127.81071283 Ry
     one-center paw contrib.   =    -110.73977219 Ry
     smearing contrib. (-TS)   =       0.00000000 Ry

     convergence has been achieved in   8 iterations

     Forces acting on atoms (cartesian axes, Ry/au):

     atom    1 type  1   force =     0.00000000    0.00000000   -0.00000000
     atom    2 type  1   force =     0.00000000    0.00000000    0.00000000
     atom    3 type  2   force =    -0.00334332   -0.00334332    0.00000000
     atom    4 type  2   force =    -0.00334332    0.00334332   -0.00000000
     atom    5 type  2   force =     0.00334332   -0.00334332    0.00000000
     atom    6 type  2   force =     0.00334332    0.00334332    0.00000000

     Total force =     0.009456     Total SCF correction =     0.000039


     Computing stress (Cartesian axis) and pressure

          total   stress  (Ry/bohr**3)                   (kbar)     P=      103.87
   0.00067108   0.00000000   0.00000000           98.72        0.00        0.00
   0.00000000   0.00067108   0.00000000            0.00       98.72        0.00
   0.00000000   0.00000000   0.00077617            0.00        0.00      114.18


     Writing output data file ./SiO2-stishovite.save/

     init_run     :      4.72s CPU      4.89s WALL (       1 calls)
     electrons    :     77.20s CPU     55.87s WALL (       1 calls)
     forces       :      1.62s CPU      1.66s WALL (       1 calls)
     stress       :      2.50s CPU      2.52s WALL (       1 calls)

     Called by init_run:
     wfcinit      :      3.50s CPU      3.55s WALL (       1 calls)
     potinit      :      0.42s CPU      0.47s WALL (       1 calls)
     hinit0       :      0.71s CPU      0.76s WALL (       1 calls)

     Called by electrons:
     c_bands      :     65.10s CPU     55.19s WALL (       8 calls)
     sum_band     :      9.20s CPU     -2.26s WALL (       8 calls)
     v_of_rho     :      0.58s CPU      0.61s WALL (       9 calls)
     newd         :      0.44s CPU      0.47s WALL (       9 calls)
     PAW_pot      :      2.20s CPU      2.22s WALL (       9 calls)
     mix_rho      :      0.05s CPU      0.05s WALL (       8 calls)

     Called by c_bands:
     init_us_2    :      0.86s CPU      0.87s WALL (     570 calls)
     cegterg      :     63.83s CPU     53.91s WALL (     240 calls)

     Called by sum_band:
     sum_band:bec :      0.00s CPU      0.00s WALL (     240 calls)
     addusdens    :      0.36s CPU      0.36s WALL (       8 calls)

     Called by *egterg:
     h_psi        :     45.56s CPU     35.55s WALL (     882 calls)
     s_psi        :      5.25s CPU      5.28s WALL (     882 calls)
     g_psi        :      0.16s CPU      0.16s WALL (     612 calls)
     cdiaghg      :      0.68s CPU      0.69s WALL (     852 calls)

     Called by h_psi:
     h_psi:calbec :      5.96s CPU      5.98s WALL (     882 calls)
     vloc_psi     :     34.22s CPU     24.13s WALL (     882 calls)
     add_vuspsi   :      5.21s CPU      5.26s WALL (     882 calls)

     General routines
     calbec       :      9.28s CPU      9.34s WALL (    1272 calls)
     fft          :      0.24s CPU      0.25s WALL (     124 calls)
     ffts         :      0.02s CPU      0.02s WALL (       8 calls)
     fftw         :     36.68s CPU     15.08s WALL (   32394 calls)

     Parallel routines

     PWSCF        :   1m26.65s CPU   1m 5.63s WALL


   This run was terminated on:  18:22:59  15Aug2020            

=------------------------------------------------------------------------------=
   JOB DONE.
=------------------------------------------------------------------------------=
