
     Program PWSCF v.6.5 starts on 15Aug2020 at 18:59: 0 

     This program is part of the open-source Quantum ESPRESSO suite
     for quantum simulation of materials; please cite
         "P. Giannozzi et al., J. Phys.:Condens. Matter 21 395502 (2009);
         "P. Giannozzi et al., J. Phys.:Condens. Matter 29 465901 (2017);
          URL http://www.quantum-espresso.org", 
     in publications or presentations arising from this work. More details at
     http://www.quantum-espresso.org/quote

     Parallel version (MPI), running on     2 processors

     MPI processes distributed on     1 nodes
     R & G space division:  proc/nbgrp/npool/nimage =       2
     Reading input from stishovites0.in

     Current dimensions of program PWSCF are:
     Max number of different atomic species (ntypx) = 10
     Max number of k-points (npk) =  40000
     Max angular momentum in pseudopotentials (lmaxx) =  3

     IMPORTANT: XC functional enforced from input :
     Exchange-correlation= PBE
                           (   1   4   3   4   0   0   0)
     Any further DFT definition will be discarded
     Please, verify this is what you really want

               file Si.pbe-n-kjpaw_psl.0.1.UPF: wavefunction(s)  3S renormalized

     Subspace diagonalization in iterative solution of the eigenvalue problem:
     a serial algorithm will be used

     Message from routine setup:
     using ibrav=0 with symmetry is DISCOURAGED, use correct ibrav instead

     Parallelization info
     --------------------
     sticks:   dense  smooth     PW     G-vecs:    dense   smooth      PW
     Min         996     996    288                21192    21192    3324
     Max         997     997    289                21193    21193    3325
     Sum        1993    1993    577                42385    42385    6649



     bravais-lattice index     =            0
     lattice parameter (alat)  =       7.8985  a.u.
     unit-cell volume          =     314.4120 (a.u.)^3
     number of atoms/cell      =            6
     number of atomic types    =            2
     number of electrons       =        32.00
     number of Kohn-Sham states=           20
     kinetic-energy cutoff     =     100.0000  Ry
     charge density cutoff     =     400.0000  Ry
     convergence threshold     =      1.0E-08
     mixing beta               =       0.7000
     number of iterations used =            8  plain     mixing
     Exchange-correlation= PBE
                           (   1   4   3   4   0   0   0)

     celldm(1)=   7.898522  celldm(2)=   0.000000  celldm(3)=   0.000000
     celldm(4)=   0.000000  celldm(5)=   0.000000  celldm(6)=   0.000000

     crystal axes: (cart. coord. in units of alat)
               a(1) = (   1.000000   0.000000   0.000000 )  
               a(2) = (   0.000000   1.000000   0.000000 )  
               a(3) = (   0.000000   0.000000   0.638060 )  

     reciprocal axes: (cart. coord. in units 2 pi/alat)
               b(1) = (  1.000000  0.000000  0.000000 )  
               b(2) = (  0.000000  1.000000  0.000000 )  
               b(3) = (  0.000000  0.000000  1.567250 )  


     PseudoPot. # 1 for Si read from file:
     ./Si.pbe-n-kjpaw_psl.0.1.UPF
     MD5 check sum: 0810ef13ebffcf5dbabd57b297315270
     Pseudo is Projector augmented-wave + core cor, Zval =  4.0
     Generated using "atomic" code by A. Dal Corso v.5.0.2 svn rev. 9415
     Shape of augmentation charge: PSQ
     Using radial grid of 1141 points,  4 beta functions with: 
                l(1) =   0
                l(2) =   0
                l(3) =   1
                l(4) =   1
     Q(r) pseudized with 0 coefficients 


     PseudoPot. # 2 for O  read from file:
     ./O.pbe-kjpaw.UPF
     MD5 check sum: c7f41d994d4e90c1781f5cd713c45011
     Pseudo is Projector augmented-wave + core cor, Zval =  6.0
     Generated using "atomic" code by A. Dal Corso (espresso distribution)
     Shape of augmentation charge: BESSEL
     Using radial grid of 1095 points,  4 beta functions with: 
                l(1) =   0
                l(2) =   0
                l(3) =   1
                l(4) =   1
     Q(r) pseudized with 0 coefficients 


     atomic species   valence    mass     pseudopotential
        Si             4.00    28.08500     Si( 1.00)
        O              6.00    15.99900     O ( 1.00)

     16 Sym. Ops., with inversion, found ( 8 have fractional translation)



   Cartesian axes

     site n.     atom                  positions (alat units)
         1           Si  tau(   1) = (   0.0000000   0.0000000   0.0000000  )
         2           Si  tau(   2) = (   0.5000000   0.5000000   0.3190301  )
         3           O   tau(   3) = (   0.3061300   0.3061300   0.0000000  )
         4           O   tau(   4) = (   0.8061300   0.1938700   0.3190301  )
         5           O   tau(   5) = (   0.1938700   0.8061300   0.3190301  )
         6           O   tau(   6) = (   0.6938700   0.6938700   0.0000000  )

     number of k points=    30  Marzari-Vanderbilt smearing, width (Ry)=  0.0050
                       cart. coord. in units 2pi/alat
        k(    1) = (   0.0000000   0.0000000   0.0000000), wk =   0.0138889
        k(    2) = (   0.0000000   0.0000000   0.1741389), wk =   0.0277778
        k(    3) = (   0.0000000   0.0000000   0.3482779), wk =   0.0277778
        k(    4) = (   0.0000000   0.0000000   0.5224168), wk =   0.0277778
        k(    5) = (   0.0000000   0.0000000   0.6965557), wk =   0.0277778
        k(    6) = (   0.0000000   0.2500000   0.0000000), wk =   0.0555556
        k(    7) = (   0.0000000   0.2500000   0.1741389), wk =   0.1111111
        k(    8) = (   0.0000000   0.2500000   0.3482779), wk =   0.1111111
        k(    9) = (   0.0000000   0.2500000   0.5224168), wk =   0.1111111
        k(   10) = (   0.0000000   0.2500000   0.6965557), wk =   0.1111111
        k(   11) = (   0.0000000  -0.5000000   0.0000000), wk =   0.0277778
        k(   12) = (   0.0000000  -0.5000000   0.1741389), wk =   0.0555556
        k(   13) = (   0.0000000  -0.5000000   0.3482779), wk =   0.0555556
        k(   14) = (   0.0000000  -0.5000000   0.5224168), wk =   0.0555556
        k(   15) = (   0.0000000  -0.5000000   0.6965557), wk =   0.0555556
        k(   16) = (   0.2500000   0.2500000   0.0000000), wk =   0.0555556
        k(   17) = (   0.2500000   0.2500000   0.1741389), wk =   0.1111111
        k(   18) = (   0.2500000   0.2500000   0.3482779), wk =   0.1111111
        k(   19) = (   0.2500000   0.2500000   0.5224168), wk =   0.1111111
        k(   20) = (   0.2500000   0.2500000   0.6965557), wk =   0.1111111
        k(   21) = (   0.2500000  -0.5000000   0.0000000), wk =   0.0555556
        k(   22) = (   0.2500000  -0.5000000   0.1741389), wk =   0.1111111
        k(   23) = (   0.2500000  -0.5000000   0.3482779), wk =   0.1111111
        k(   24) = (   0.2500000  -0.5000000   0.5224168), wk =   0.1111111
        k(   25) = (   0.2500000  -0.5000000   0.6965557), wk =   0.1111111
        k(   26) = (  -0.5000000  -0.5000000   0.0000000), wk =   0.0138889
        k(   27) = (  -0.5000000  -0.5000000   0.1741389), wk =   0.0277778
        k(   28) = (  -0.5000000  -0.5000000   0.3482779), wk =   0.0277778
        k(   29) = (  -0.5000000  -0.5000000   0.5224168), wk =   0.0277778
        k(   30) = (  -0.5000000  -0.5000000   0.6965557), wk =   0.0277778

     Dense  grid:    42385 G-vectors     FFT dimensions: (  54,  54,  36)

     Estimated max dynamical RAM per process >      60.51 MB

     Estimated total dynamical RAM >     121.02 MB

     Initial potential from superposition of free atoms

     starting charge   31.99892, renormalised to   32.00000
     Starting wfcs are   24 randomized atomic wfcs
     Checking if some PAW data can be deallocated... 

     total cpu time spent up to now is        3.8 secs

     Self-consistent Calculation

     iteration #  1     ecut=   100.00 Ry     beta= 0.70
     Davidson diagonalization with overlap
     ethr =  1.00E-02,  avg # of iterations =  2.8

     total cpu time spent up to now is        9.9 secs

     total energy              =    -260.13362580 Ry
     Harris-Foulkes estimate   =    -260.93469143 Ry
     estimated scf accuracy    <       1.06649971 Ry

     iteration #  2     ecut=   100.00 Ry     beta= 0.70
     Davidson diagonalization with overlap
     ethr =  3.33E-03,  avg # of iterations =  2.7

     total cpu time spent up to now is       15.7 secs

     total energy              =    -260.45786242 Ry
     Harris-Foulkes estimate   =    -260.79478128 Ry
     estimated scf accuracy    <       0.61616057 Ry

     iteration #  3     ecut=   100.00 Ry     beta= 0.70
     Davidson diagonalization with overlap
     ethr =  1.93E-03,  avg # of iterations =  2.1

     total cpu time spent up to now is       20.7 secs

     total energy              =    -260.58869074 Ry
     Harris-Foulkes estimate   =    -260.58841917 Ry
     estimated scf accuracy    <       0.00377882 Ry

     iteration #  4     ecut=   100.00 Ry     beta= 0.70
     Davidson diagonalization with overlap
     ethr =  1.18E-05,  avg # of iterations =  4.4

     total cpu time spent up to now is       27.0 secs

     total energy              =    -260.58983417 Ry
     Harris-Foulkes estimate   =    -260.59000287 Ry
     estimated scf accuracy    <       0.00039956 Ry

     iteration #  5     ecut=   100.00 Ry     beta= 0.70
     Davidson diagonalization with overlap
     ethr =  1.25E-06,  avg # of iterations =  2.0

     total cpu time spent up to now is       19.6 secs

     total energy              =    -260.58983179 Ry
     Harris-Foulkes estimate   =    -260.58986213 Ry
     estimated scf accuracy    <       0.00006013 Ry

     iteration #  6     ecut=   100.00 Ry     beta= 0.70
     Davidson diagonalization with overlap
     ethr =  1.88E-07,  avg # of iterations =  2.0

     total cpu time spent up to now is       24.6 secs

     total energy              =    -260.58984788 Ry
     Harris-Foulkes estimate   =    -260.58984807 Ry
     estimated scf accuracy    <       0.00000139 Ry

     iteration #  7     ecut=   100.00 Ry     beta= 0.70
     Davidson diagonalization with overlap
     ethr =  4.35E-09,  avg # of iterations =  2.5

     total cpu time spent up to now is       29.8 secs

     total energy              =    -260.58984820 Ry
     Harris-Foulkes estimate   =    -260.58984826 Ry
     estimated scf accuracy    <       0.00000016 Ry

     iteration #  8     ecut=   100.00 Ry     beta= 0.70
     Davidson diagonalization with overlap
     ethr =  5.15E-10,  avg # of iterations =  2.0

     total cpu time spent up to now is       34.5 secs

     End of self-consistent calculation

          k = 0.0000 0.0000 0.0000 (  5281 PWs)   bands (ev):

   -11.9727  -8.3219  -8.3219  -8.0954  -0.2911   4.1425   4.1425   4.3368
     5.1807   5.4701   7.4381   7.4381   8.0532   9.6966   9.6966  10.5750
    16.2005  17.2783  19.1100  19.1100

          k = 0.0000 0.0000 0.1741 (  5312 PWs)   bands (ev):

   -11.8077  -8.2370  -8.2370  -8.0756  -0.2302   4.2806   4.2806   4.5169
     4.7218   5.2385   6.8825   6.8825   7.4684   9.5765   9.5765  10.4269
    16.7883  18.1596  19.8247  19.8247

          k = 0.0000 0.0000 0.3483 (  5336 PWs)   bands (ev):

   -11.3291  -8.0852  -8.0103  -8.0103  -0.0908   3.9208   4.3862   4.6734
     4.6734   5.0444   5.6697   5.6697   6.4113   9.1966   9.1966   9.9588
    17.8400  20.0154  20.7180  21.4405

          k = 0.0000 0.0000 0.5224 (  5312 PWs)   bands (ev):

   -10.5924  -8.3037  -7.7289  -7.7289   0.1084   2.9816   3.6072   4.4566
     4.4566   5.2824   5.2824   5.5183   5.8777   8.5978   8.5978   9.1529
    18.5219  20.8806  21.4008  22.9059

          k = 0.0000 0.0000 0.6966 (  5336 PWs)   bands (ev):

    -9.7103  -8.8727  -7.5284  -7.5284   0.5993   1.5928   3.7472   3.7472
     3.9581   4.6841   5.8473   5.8473   6.9362   8.0068   8.0068   8.0878
    19.1885  20.1328  22.6237  23.3143

          k = 0.0000 0.2500 0.0000 (  5305 PWs)   bands (ev):

   -11.6475  -9.4359  -8.1609  -7.6447   0.1347   2.8337   4.4648   5.3038
     5.4243   6.3795   6.9293   7.5744   8.0954   8.5036   9.5926  10.1156
    17.0748  17.7984  19.2787  19.3215

          k = 0.0000 0.2500 0.1741 (  5299 PWs)   bands (ev):

   -11.4877  -9.3278  -8.0873  -7.6246   0.2394   2.9421   4.1166   5.0559
     5.6692   5.7554   6.8471   7.0934   7.3622   8.7590   9.4609  10.0716
    17.5022  18.6139  19.9459  19.9647

          k = 0.0000 0.2500 0.3483 (  5316 PWs)   bands (ev):

   -11.0265  -9.0439  -7.8988  -7.6089   0.4798   3.1537   3.2148   4.2962
     5.0285   5.9328   6.0958   6.3646   6.7076   8.8206   9.0639   9.8188
    18.2708  20.2260  21.1049  21.3365

          k = 0.0000 0.2500 0.5224 (  5311 PWs)   bands (ev):

   -10.3267  -8.7504  -7.6934  -7.6724   0.6399   2.4880   2.7697   3.7505
     4.3470   4.6904   6.4004   6.4138   6.7344   8.4934   8.6095   9.2868
    18.7891  20.5749  21.0188  21.9122

          k = 0.0000 0.2500 0.6966 (  5324 PWs)   bands (ev):

    -9.5208  -8.8673  -7.6778  -7.6073   0.8138   1.4203   2.9991   3.4054
     3.8687   4.0743   6.4157   6.6914   7.3982   8.1264   8.1849   8.6051
    19.2425  19.8898  21.2383  21.6110

          k = 0.0000-0.5000 0.0000 (  5270 PWs)   bands (ev):

   -10.7307 -10.7307  -7.8021  -7.8021   1.2502   1.2502   6.0260   6.0260
     6.0849   6.0849   6.7041   6.7041   7.8837   7.8837   9.5059   9.5059
    18.3124  18.3124  19.6850  19.6850

          k = 0.0000-0.5000 0.1741 (  5300 PWs)   bands (ev):

   -10.5883 -10.5883  -7.7587  -7.7587   1.3851   1.3851   4.7910   4.7910
     6.3351   6.3351   6.9856   6.9856   7.6508   7.6508   9.4226   9.4226
    18.8123  18.8123  20.3848  20.3848

          k = 0.0000-0.5000 0.3483 (  5292 PWs)   bands (ev):

   -10.1861 -10.1861  -7.6700  -7.6700   1.7481   1.7481   3.2807   3.2807
     5.5303   5.5303   7.1996   7.1996   7.6392   7.6392   9.2036   9.2036
    19.5429  19.5429  21.2953  21.2953

          k = 0.0000-0.5000 0.5224 (  5314 PWs)   bands (ev):

    -9.6142  -9.6142  -7.6472  -7.6472   1.9091   1.9091   2.2897   2.2897
     4.5300   4.5300   7.0072   7.0072   7.9539   7.9539   8.9795   8.9795
    19.6196  19.6196  20.7164  20.7164

          k = 0.0000-0.5000 0.6966 (  5346 PWs)   bands (ev):

    -9.0963  -9.0963  -7.7571  -7.7571   1.2593   1.2593   2.4544   2.4544
     4.0643   4.0643   6.6629   6.6629   8.2427   8.2427   8.8429   8.8429
    19.3862  19.3862  20.4793  20.4793

          k = 0.2500 0.2500 0.0000 (  5290 PWs)   bands (ev):

   -11.3431  -9.6081  -8.5101  -7.7134   0.6701   2.9567   4.1826   5.6543
     5.8243   6.5933   6.8888   7.3736   7.9980   8.0833   9.1275   9.7738
    17.3534  18.2326  19.2894  20.0601

          k = 0.2500 0.2500 0.1741 (  5308 PWs)   bands (ev):

   -11.1888  -9.4992  -8.4189  -7.6814   0.7657   2.7681   4.2889   5.1506
     5.8176   5.8314   6.9218   7.0406   7.3304   8.4926   9.0985   9.8245
    17.7911  18.9043  19.8564  20.7051

          k = 0.2500 0.2500 0.3483 (  5316 PWs)   bands (ev):

   -10.7467  -9.2127  -8.1746  -7.6293   0.9258   2.2048   3.9755   4.4109
     5.0450   5.3457   5.9825   6.7592   7.3833   8.5855   8.9713   9.7220
    18.3929  19.9149  20.9667  21.9449

          k = 0.2500 0.2500 0.5224 (  5321 PWs)   bands (ev):

   -10.0876  -8.8953  -7.8689  -7.6566   0.6628   1.7695   3.0032   3.6860
     4.1349   5.4797   5.4834   7.2578   7.3522   8.4307   8.6740   9.3650
    18.5553  19.5864  21.4041  22.5268

          k = 0.2500 0.2500 0.6966 (  5312 PWs)   bands (ev):

    -9.3662  -8.8673  -7.7505  -7.6491   0.2634   1.3277   2.9837   3.0185
     3.3728   5.3170   5.9234   7.4322   7.8668   8.1653   8.3129   8.8782
    18.5793  19.1560  21.2068  22.3770

          k = 0.2500-0.5000 0.0000 (  5286 PWs)   bands (ev):

   -10.5166 -10.5166  -8.2074  -8.2074   1.8749   1.8749   5.4280   5.4280
     6.2612   6.2612   7.1458   7.1458   7.6426   7.6426   9.1028   9.1028
    18.1009  18.1009  20.1639  20.1639

          k = 0.2500-0.5000 0.1741 (  5296 PWs)   bands (ev):

   -10.3807 -10.3807  -8.1384  -8.1384   1.8752   1.8752   4.8758   4.8758
     6.0474   6.0474   6.9564   6.9564   7.6948   7.6948   9.1843   9.1843
    18.5645  18.5645  20.7572  20.7572

          k = 0.2500-0.5000 0.3483 (  5298 PWs)   bands (ev):

   -10.0011 -10.0011  -7.9689  -7.9689   1.6624   1.6624   4.0033   4.0033
     5.0910   5.0910   6.9423   6.9423   7.9106   7.9106   9.1909   9.1909
    19.0272  19.0272  21.9749  21.9749

          k = 0.2500-0.5000 0.5224 (  5316 PWs)   bands (ev):

    -9.4781  -9.4781  -7.8072  -7.8072   0.9739   0.9739   3.4041   3.4041
     4.3750   4.3750   7.0243   7.0243   8.1469   8.1469   9.0625   9.0625
    18.7085  18.7085  21.7977  21.7977

          k = 0.2500-0.5000 0.6966 (  5308 PWs)   bands (ev):

    -9.0383  -9.0383  -7.7596  -7.7596   0.3849   0.3849   2.8121   2.8121
     4.4350   4.4350   7.0058   7.0058   8.2983   8.2983   8.9608   8.9608
    18.3413  18.3413  21.3774  21.3774

          k =-0.5000-0.5000 0.0000 (  5308 PWs)   bands (ev):

   -10.2135 -10.2135  -8.6869  -8.6869   2.7167   2.7167   4.6679   4.6679
     6.5303   6.5303   7.3101   7.3101   7.9182   7.9182   8.2991   8.2991
    17.9902  17.9902  20.6582  20.6582

          k =-0.5000-0.5000 0.1741 (  5320 PWs)   bands (ev):

   -10.0890 -10.0890  -8.5903  -8.5903   2.4650   2.4650   4.6871   4.6871
     6.2858   6.2858   6.3966   6.3966   8.3769   8.3769   8.4648   8.4648
    18.4214  18.4214  21.1745  21.1745

          k =-0.5000-0.5000 0.3483 (  5328 PWs)   bands (ev):

    -9.7492  -9.7492  -8.3305  -8.3305   1.6788   1.6788   4.2888   4.2888
     5.6277   5.6277   5.9765   5.9765   8.5812   8.5812   8.8246   8.8246
    18.7648  18.7648  22.0405  22.0405

          k =-0.5000-0.5000 0.5224 (  5324 PWs)   bands (ev):

    -9.3081  -9.3081  -8.0028  -8.0028   0.6328   0.6328   3.2200   3.2200
     5.7880   5.7880   5.9431   5.9431   8.8284   8.8284   8.8920   8.8920
    18.3035  18.3035  21.9599  21.9599

          k =-0.5000-0.5000 0.6966 (  5268 PWs)   bands (ev):

    -8.9767  -8.9767  -7.7654  -7.7654  -0.1006  -0.1006   2.4959   2.4959
     6.0199   6.0199   6.0487   6.0487   8.8252   8.8252   8.9996   8.9996
    17.8239  17.8239  21.6475  21.6475

     the Fermi energy is    14.5606 ev

!    total energy              =    -260.58984822 Ry
     Harris-Foulkes estimate   =    -260.58984822 Ry
     estimated scf accuracy    <          2.9E-09 Ry

     total all-electron energy =     -1762.324569 Ry

     The total energy is the sum of the following terms:

     one-electron contribution =     -12.16908164 Ry
     hartree contribution      =      31.60917302 Ry
     xc contribution           =     -41.48000595 Ry
     ewald contribution        =    -127.81016241 Ry
     one-center paw contrib.   =    -110.73977125 Ry
     smearing contrib. (-TS)   =       0.00000000 Ry

     convergence has been achieved in   8 iterations

     Forces acting on atoms (cartesian axes, Ry/au):

     atom    1 type  1   force =     0.00000000    0.00000000   -0.00000000
     atom    2 type  1   force =     0.00000000    0.00000000    0.00000000
     atom    3 type  2   force =    -0.00334166   -0.00334166    0.00000000
     atom    4 type  2   force =    -0.00334166    0.00334166   -0.00000000
     atom    5 type  2   force =     0.00334166   -0.00334166    0.00000000
     atom    6 type  2   force =     0.00334166    0.00334166   -0.00000000

     Total force =     0.009452     Total SCF correction =     0.000039


     Computing stress (Cartesian axis) and pressure

          total   stress  (Ry/bohr**3)                   (kbar)     P=      103.82
   0.00067078   0.00000000   0.00000000           98.67        0.00        0.00
   0.00000000   0.00067078   0.00000000            0.00       98.67        0.00
   0.00000000   0.00000000   0.00077580            0.00        0.00      114.12


     Writing output data file ./SiO2-stishovite.save/

     init_run     :      2.85s CPU      2.99s WALL (       1 calls)
     electrons    :     40.86s CPU     30.69s WALL (       1 calls)
     forces       :      0.87s CPU      0.88s WALL (       1 calls)
     stress       :      1.44s CPU      1.45s WALL (       1 calls)

     Called by init_run:
     wfcinit      :      2.07s CPU      2.18s WALL (       1 calls)
     potinit      :      0.25s CPU      0.26s WALL (       1 calls)
     hinit0       :      0.46s CPU      0.48s WALL (       1 calls)

     Called by electrons:
     c_bands      :     34.56s CPU     24.24s WALL (       8 calls)
     sum_band     :      4.75s CPU      4.84s WALL (       8 calls)
     v_of_rho     :      0.32s CPU      0.32s WALL (       9 calls)
     newd         :      0.25s CPU      0.26s WALL (       9 calls)
     PAW_pot      :      1.13s CPU      1.15s WALL (       9 calls)
     mix_rho      :      0.04s CPU      0.04s WALL (       8 calls)

     Called by c_bands:
     init_us_2    :      0.47s CPU      0.48s WALL (     570 calls)
     cegterg      :     33.82s CPU     23.50s WALL (     240 calls)

     Called by sum_band:
     sum_band:bec :      0.00s CPU      0.00s WALL (     240 calls)
     addusdens    :      0.20s CPU      0.21s WALL (       8 calls)

     Called by *egterg:
     h_psi        :     24.32s CPU     13.77s WALL (     888 calls)
     s_psi        :      2.61s CPU      2.68s WALL (     888 calls)
     g_psi        :      0.08s CPU      0.08s WALL (     618 calls)
     cdiaghg      :      0.71s CPU      0.72s WALL (     858 calls)

     Called by h_psi:
     h_psi:calbec :      3.16s CPU      3.25s WALL (     888 calls)
     vloc_psi     :     18.42s CPU      7.72s WALL (     888 calls)
     add_vuspsi   :      2.60s CPU      2.66s WALL (     888 calls)

     General routines
     calbec       :      4.82s CPU      4.94s WALL (    1278 calls)
     fft          :      0.13s CPU      0.13s WALL (     124 calls)
     ffts         :      0.01s CPU      0.01s WALL (       8 calls)
     fftw         :     19.55s CPU      8.86s WALL (   32370 calls)

     Parallel routines
     fft_scatt_xy :      2.08s CPU     -9.20s WALL (   32502 calls)
     fft_scatt_yz :      2.64s CPU      2.81s WALL (   32502 calls)

     PWSCF        :     46.70s CPU     36.97s WALL


   This run was terminated on:  18:59:37  15Aug2020            

=------------------------------------------------------------------------------=
   JOB DONE.
=------------------------------------------------------------------------------=
