
     Program PWSCF v.6.5 starts on 14Aug2020 at 22:50: 9 

     This program is part of the open-source Quantum ESPRESSO suite
     for quantum simulation of materials; please cite
         "P. Giannozzi et al., J. Phys.:Condens. Matter 21 395502 (2009);
         "P. Giannozzi et al., J. Phys.:Condens. Matter 29 465901 (2017);
          URL http://www.quantum-espresso.org", 
     in publications or presentations arising from this work. More details at
     http://www.quantum-espresso.org/quote

     Parallel version (MPI), running on     2 processors

     MPI processes distributed on     1 nodes
     R & G space division:  proc/nbgrp/npool/nimage =       2
     Reading input from PbO.in

     Current dimensions of program PWSCF are:
     Max number of different atomic species (ntypx) = 10
     Max number of k-points (npk) =  40000
     Max angular momentum in pseudopotentials (lmaxx) =  3

     IMPORTANT: XC functional enforced from input :
     Exchange-correlation= PBE
                           (   1   4   3   4   0   0   0)
     Any further DFT definition will be discarded
     Please, verify this is what you really want

               file O.pbe-n-kjpaw_psl.0.1.UPF: wavefunction(s)  2P renormalized
               file Pb.pbe-dn-kjpaw_psl.0.2.2.UPF: wavefunction(s)  6S renormalized

     Subspace diagonalization in iterative solution of the eigenvalue problem:
     a serial algorithm will be used

     Message from routine setup:
     using ibrav=0 with symmetry is DISCOURAGED, use correct ibrav instead

     Parallelization info
     --------------------
     sticks:   dense  smooth     PW     G-vecs:    dense   smooth      PW
     Min         542     542    152                16820    16820    2560
     Max         543     543    153                16823    16823    2561
     Sum        1085    1085    305                33643    33643    5121



     bravais-lattice index     =            0
     lattice parameter (alat)  =       7.5105  a.u.
     unit-cell volume          =     535.3237 (a.u.)^3
     number of atoms/cell      =            4
     number of atomic types    =            2
     number of electrons       =        40.00
     number of Kohn-Sham states=           24
     kinetic-energy cutoff     =      60.0000  Ry
     charge density cutoff     =     240.0000  Ry
     convergence threshold     =      1.0E-08
     mixing beta               =       0.7000
     number of iterations used =            8  plain     mixing
     Exchange-correlation= PBE
                           (   1   4   3   4   0   0   0)

     celldm(1)=   7.510528  celldm(2)=   0.000000  celldm(3)=   0.000000
     celldm(4)=   0.000000  celldm(5)=   0.000000  celldm(6)=   0.000000

     crystal axes: (cart. coord. in units of alat)
               a(1) = (   1.000000   0.000000   0.000000 )  
               a(2) = (   0.000000   1.000000   0.000000 )  
               a(3) = (   0.000000   0.000000   1.263587 )  

     reciprocal axes: (cart. coord. in units 2 pi/alat)
               b(1) = (  1.000000  0.000000  0.000000 )  
               b(2) = (  0.000000  1.000000  0.000000 )  
               b(3) = (  0.000000  0.000000  0.791398 )  


     PseudoPot. # 1 for O  read from file:
     ./O.pbe-n-kjpaw_psl.0.1.UPF
     MD5 check sum: 833c495a5d0f9b75bf046115549bffff
     Pseudo is Projector augmented-wave + core cor, Zval =  6.0
     Generated using "atomic" code by A. Dal Corso v.6.3
     Shape of augmentation charge: BESSEL
     Using radial grid of 1095 points,  4 beta functions with: 
                l(1) =   0
                l(2) =   0
                l(3) =   1
                l(4) =   1
     Q(r) pseudized with 0 coefficients 


     PseudoPot. # 2 for Pb read from file:
     ./Pb.pbe-dn-kjpaw_psl.0.2.2.UPF
     MD5 check sum: f59221ed870a8203cfe6076f2d6248d0
     Pseudo is Projector augmented-wave + core cor, Zval = 14.0
     Generated using "atomic" code by A. Dal Corso v.5.0.2 svn rev. 9415
     Shape of augmentation charge: PSQ
     Using radial grid of 1281 points,  6 beta functions with: 
                l(1) =   0
                l(2) =   0
                l(3) =   1
                l(4) =   1
                l(5) =   2
                l(6) =   2
     Q(r) pseudized with 0 coefficients 


     atomic species   valence    mass     pseudopotential
        O              6.00    15.99900     O ( 1.00)
        Pb            14.00   207.20000     Pb( 1.00)

     16 Sym. Ops., with inversion, found ( 8 have fractional translation)



   Cartesian axes

     site n.     atom                  positions (alat units)
         1           Pb  tau(   1) = (   0.0000000   0.5000000   0.2970693  )
         2           Pb  tau(   2) = (   0.5000000   0.0000000   0.9665177  )
         3           O   tau(   3) = (   0.0000000   0.0000000   0.0000000  )
         4           O   tau(   4) = (   0.5000000   0.5000000   0.0000000  )

     number of k points=    18  Marzari-Vanderbilt smearing, width (Ry)=  0.0050
                       cart. coord. in units 2pi/alat
        k(    1) = (   0.0000000   0.0000000   0.0000000), wk =   0.0160000
        k(    2) = (   0.0000000   0.0000000   0.1582796), wk =   0.0320000
        k(    3) = (   0.0000000   0.0000000   0.3165591), wk =   0.0320000
        k(    4) = (   0.0000000   0.2000000   0.0000000), wk =   0.0640000
        k(    5) = (   0.0000000   0.2000000   0.1582796), wk =   0.1280000
        k(    6) = (   0.0000000   0.2000000   0.3165591), wk =   0.1280000
        k(    7) = (   0.0000000   0.4000000   0.0000000), wk =   0.0640000
        k(    8) = (   0.0000000   0.4000000   0.1582796), wk =   0.1280000
        k(    9) = (   0.0000000   0.4000000   0.3165591), wk =   0.1280000
        k(   10) = (   0.2000000   0.2000000   0.0000000), wk =   0.0640000
        k(   11) = (   0.2000000   0.2000000   0.1582796), wk =   0.1280000
        k(   12) = (   0.2000000   0.2000000   0.3165591), wk =   0.1280000
        k(   13) = (   0.2000000   0.4000000   0.0000000), wk =   0.1280000
        k(   14) = (   0.2000000   0.4000000   0.1582796), wk =   0.2560000
        k(   15) = (   0.2000000   0.4000000   0.3165591), wk =   0.2560000
        k(   16) = (   0.4000000   0.4000000   0.0000000), wk =   0.0640000
        k(   17) = (   0.4000000   0.4000000   0.1582796), wk =   0.1280000
        k(   18) = (   0.4000000   0.4000000   0.3165591), wk =   0.1280000

     Dense  grid:    33643 G-vectors     FFT dimensions: (  40,  40,  48)

     Estimated max dynamical RAM per process >      80.98 MB

     Estimated total dynamical RAM >     161.96 MB

     Check: negative core charge=   -0.000006

     Initial potential from superposition of free atoms

     starting charge   39.99529, renormalised to   40.00000
     Starting wfcs are   26 randomized atomic wfcs
     Checking if some PAW data can be deallocated... 

     total cpu time spent up to now is        3.6 secs

     Self-consistent Calculation

     iteration #  1     ecut=    60.00 Ry     beta= 0.70
     Davidson diagonalization with overlap
     ethr =  1.00E-02,  avg # of iterations =  2.2

     total cpu time spent up to now is        6.8 secs

     total energy              =   -1823.58642319 Ry
     Harris-Foulkes estimate   =   -1824.76331611 Ry
     estimated scf accuracy    <       1.44075026 Ry

     iteration #  2     ecut=    60.00 Ry     beta= 0.70
     Davidson diagonalization with overlap
     ethr =  3.60E-03,  avg # of iterations =  4.8

     total cpu time spent up to now is       11.4 secs

     total energy              =   -1822.84756223 Ry
     Harris-Foulkes estimate   =   -1825.80075465 Ry
     estimated scf accuracy    <       8.96316967 Ry

     iteration #  3     ecut=    60.00 Ry     beta= 0.70
     Davidson diagonalization with overlap
     ethr =  3.60E-03,  avg # of iterations =  3.1

     total cpu time spent up to now is       15.2 secs

     total energy              =   -1824.45871405 Ry
     Harris-Foulkes estimate   =   -1824.48601536 Ry
     estimated scf accuracy    <       0.11935629 Ry

     iteration #  4     ecut=    60.00 Ry     beta= 0.70
     Davidson diagonalization with overlap
     ethr =  2.98E-04,  avg # of iterations =  3.7

     total cpu time spent up to now is       18.3 secs

     total energy              =   -1824.45861825 Ry
     Harris-Foulkes estimate   =   -1824.47251581 Ry
     estimated scf accuracy    <       0.03230746 Ry

     iteration #  5     ecut=    60.00 Ry     beta= 0.70
     Davidson diagonalization with overlap
     ethr =  8.08E-05,  avg # of iterations =  3.4

     total cpu time spent up to now is       21.5 secs

     total energy              =   -1824.46717554 Ry
     Harris-Foulkes estimate   =   -1824.46772534 Ry
     estimated scf accuracy    <       0.00170497 Ry

     iteration #  6     ecut=    60.00 Ry     beta= 0.70
     Davidson diagonalization with overlap
     ethr =  4.26E-06,  avg # of iterations =  4.8

     total cpu time spent up to now is       26.2 secs

     total energy              =   -1824.46815024 Ry
     Harris-Foulkes estimate   =   -1824.46829207 Ry
     estimated scf accuracy    <       0.00028595 Ry

     iteration #  7     ecut=    60.00 Ry     beta= 0.70
     Davidson diagonalization with overlap
     ethr =  7.15E-07,  avg # of iterations =  2.6

     total cpu time spent up to now is       29.2 secs

     total energy              =   -1824.46822268 Ry
     Harris-Foulkes estimate   =   -1824.46823971 Ry
     estimated scf accuracy    <       0.00004202 Ry

     iteration #  8     ecut=    60.00 Ry     beta= 0.70
     Davidson diagonalization with overlap
     ethr =  1.05E-07,  avg # of iterations =  3.2

     total cpu time spent up to now is       32.6 secs

     total energy              =   -1824.46823229 Ry
     Harris-Foulkes estimate   =   -1824.46823239 Ry
     estimated scf accuracy    <       0.00000026 Ry

     iteration #  9     ecut=    60.00 Ry     beta= 0.70
     Davidson diagonalization with overlap
     ethr =  6.39E-10,  avg # of iterations =  5.3

     total cpu time spent up to now is       39.1 secs

     total energy              =   -1824.46823347 Ry
     Harris-Foulkes estimate   =   -1824.46823347 Ry
     estimated scf accuracy    <       0.00000002 Ry

     iteration # 10     ecut=    60.00 Ry     beta= 0.70
     Davidson diagonalization with overlap
     ethr =  4.58E-11,  avg # of iterations =  3.9

     total cpu time spent up to now is       42.6 secs

     End of self-consistent calculation

          k = 0.0000 0.0000 0.0000 (  4219 PWs)   bands (ev):

    -9.6419  -9.0967  -7.2335  -7.2335  -7.1709  -7.1528  -7.0726  -7.0014
    -7.0014  -6.9996  -6.9711  -5.6089   1.5976   2.1611   4.4971   4.4971
     7.0968   7.1284   7.1284   8.8173  11.1748  14.2575  14.5107  14.5107

          k = 0.0000 0.0000 0.1583 (  4207 PWs)   bands (ev):

    -9.6339  -9.0915  -7.2184  -7.2184  -7.1638  -7.1562  -7.0648  -7.0196
    -7.0196  -7.0048  -6.9790  -5.6041   0.8175   3.1851   4.5489   4.5489
     7.0826   7.1198   7.1198   8.5984  10.9144  13.6642  13.6642  13.9991

          k = 0.0000 0.0000 0.3166 (  4200 PWs)   bands (ev):

    -9.6210  -9.0829  -7.1856  -7.1856  -7.1817  -7.1286  -7.0575  -7.0575
    -7.0475  -7.0166  -6.9963  -5.5964   0.2597   4.2663   4.6362   4.6362
     7.0601   7.1035   7.1035   8.0152  10.7615  12.9732  12.9732  13.2377

          k = 0.0000 0.2000 0.0000 (  4183 PWs)   bands (ev):

    -9.5591  -9.1255  -7.2150  -7.2098  -7.1419  -7.1291  -7.0866  -7.0188
    -7.0092  -6.9870  -6.8882  -5.7212   1.4490   2.1405   4.6507   4.7362
     6.4491   6.8611   6.9800   8.7579  12.0945  12.7446  14.4786  14.7198

          k = 0.0000 0.2000 0.1583 (  4194 PWs)   bands (ev):

    -9.5552  -9.1228  -7.2099  -7.1962  -7.1363  -7.1300  -7.0896  -7.0270
    -7.0239  -6.9765  -6.8929  -5.7167   0.9063   2.7664   4.6473   4.7792
     6.5309   6.8540   7.0288   8.5880  11.8386  12.1342  13.9872  15.0927

          k = 0.0000 0.2000 0.3166 (  4191 PWs)   bands (ev):

    -9.5488  -9.1183  -7.1946  -7.1708  -7.1490  -7.1169  -7.1033  -7.0509
    -7.0090  -6.9825  -6.8991  -5.7094   0.4449   3.4406   4.5204   4.8514
     6.6460   6.8408   7.3754   8.1033  11.3933  11.6296  13.3663  15.0464

          k = 0.0000 0.4000 0.0000 (  4200 PWs)   bands (ev):

    -9.3828  -9.2226  -7.1698  -7.1565  -7.1215  -7.1140  -7.0678  -7.0225
    -7.0196  -7.0151  -6.5711  -6.0862   1.4047   1.8055   5.2021   5.3709
     5.9725   6.1800   6.7379   7.8011  12.1058  12.4323  14.8379  15.2650

          k = 0.0000 0.4000 0.1583 (  4212 PWs)   bands (ev):

    -9.3853  -9.2248  -7.1853  -7.1498  -7.1423  -7.1153  -7.0571  -7.0168
    -7.0121  -6.9892  -6.5676  -6.0810   1.2229   1.9348   4.9865   5.3932
     5.8716   6.1825   7.0619   7.8947  11.8596  12.3970  14.8696  15.0138

          k = 0.0000 0.4000 0.3166 (  4218 PWs)   bands (ev):

    -9.3891  -9.2283  -7.2004  -7.1747  -7.1392  -7.1167  -7.0359  -7.0170
    -6.9824  -6.9714  -6.5609  -6.0727   1.0123   2.0679   4.7265   5.4302
     5.7068   6.1859   7.6191   7.9288  11.5015  12.3004  14.4745  15.6560

          k = 0.2000 0.2000 0.0000 (  4205 PWs)   bands (ev):

    -9.4915  -9.1478  -7.2137  -7.1646  -7.1184  -7.1151  -7.0894  -7.0224
    -6.9982  -6.9892  -6.8131  -5.8001   1.2288   1.9944   4.5207   5.3663
     6.0745   6.3203   7.4596   8.6025  12.4730  12.5252  13.5387  13.8022

          k = 0.2000 0.2000 0.1583 (  4205 PWs)   bands (ev):

    -9.4900  -9.1462  -7.1987  -7.1735  -7.1203  -7.1139  -7.0766  -7.0348
    -7.0082  -6.9935  -6.7970  -5.7928   0.8909   2.3583   4.3459   5.4173
     6.2468   6.4538   7.4619   8.4034  12.1417  12.4828  12.5816  14.9522

          k = 0.2000 0.2000 0.3166 (  4204 PWs)   bands (ev):

    -9.4878  -9.1434  -7.1855  -7.1624  -7.1334  -7.0967  -7.0752  -7.0464
    -7.0428  -6.9899  -6.7714  -5.7811   0.5445   2.8117   4.0571   5.5223
     6.1072   7.1577   7.4657   7.9794  11.3348  12.2437  12.6570  15.7296

          k = 0.2000 0.4000 0.0000 (  4213 PWs)   bands (ev):

    -9.3509  -9.2246  -7.1599  -7.1277  -7.1133  -7.1045  -7.0520  -7.0113
    -7.0075  -6.9960  -6.5202  -6.0906   1.0671   1.4618   4.9350   5.6602
     6.1928   6.2761   7.3002   7.7701  11.6790  11.9410  14.1110  14.4236

          k = 0.2000 0.4000 0.1583 (  4203 PWs)   bands (ev):

    -9.3528  -9.2256  -7.1626  -7.1444  -7.1094  -7.0943  -7.0541  -7.0284
    -6.9978  -6.9911  -6.4980  -6.0758   0.9827   1.5488   4.6052   5.4579
     6.2835   6.6798   7.3085   7.7411  11.7021  12.0285  13.6478  14.6433

          k = 0.2000 0.4000 0.3166 (  4207 PWs)   bands (ev):

    -9.3560  -9.2274  -7.1762  -7.1529  -7.1123  -7.0900  -7.0424  -7.0243
    -7.0077  -6.9910  -6.4626  -6.0522   0.8718   1.6684   4.2482   5.2174
     6.3634   7.0789   7.3759   7.6714  11.6779  12.4651  13.2582  14.5934

          k = 0.4000 0.4000 0.0000 (  4199 PWs)   bands (ev):

    -9.2920  -9.2459  -7.1355  -7.1330  -7.0823  -7.0498  -7.0077  -6.9971
    -6.9842  -6.9707  -6.3623  -6.1703   0.6228   0.8060   5.1461   5.4855
     6.7173   7.2533   7.4526   7.7239  10.5254  10.6787  13.9980  14.3149

          k = 0.4000 0.4000 0.1583 (  4206 PWs)   bands (ev):

    -9.2927  -9.2458  -7.1309  -7.1227  -7.0809  -7.0506  -7.0243  -7.0087
    -6.9968  -6.9946  -6.3202  -6.1369   0.6268   0.8478   4.8583   5.3252
     6.8240   7.2693   7.3004   7.7234  10.9761  10.9818  13.8993  14.4496

          k = 0.4000 0.4000 0.3166 (  4186 PWs)   bands (ev):

    -9.2937  -9.2457  -7.1328  -7.1014  -7.0761  -7.0555  -7.0365  -7.0343
    -7.0264  -7.0159  -6.2584  -6.0864   0.6356   0.9161   4.5048   5.1019
     6.7556   7.0813   7.3526   7.7229  11.9477  12.0442  13.2084  14.3472

     the Fermi energy is     9.4547 ev

!    total energy              =   -1824.46823348 Ry
     Harris-Foulkes estimate   =   -1824.46823348 Ry
     estimated scf accuracy    <          7.0E-10 Ry

     total all-electron energy =    -83829.218948 Ry

     The total energy is the sum of the following terms:

     one-electron contribution =    -103.75978598 Ry
     hartree contribution      =      85.04922573 Ry
     xc contribution           =    -103.73073061 Ry
     ewald contribution        =    -226.07136237 Ry
     one-center paw contrib.   =   -1475.95558025 Ry
     smearing contrib. (-TS)   =       0.00000000 Ry

     convergence has been achieved in  10 iterations

     Forces acting on atoms (cartesian axes, Ry/au):

     atom    1 type  2   force =     0.00000000    0.00000000    0.02155912
     atom    2 type  2   force =     0.00000000    0.00000000   -0.02155912
     atom    3 type  1   force =     0.00000000    0.00000000   -0.00000000
     atom    4 type  1   force =     0.00000000    0.00000000    0.00000000

     Total force =     0.030489     Total SCF correction =     0.000059


     Computing stress (Cartesian axis) and pressure

          total   stress  (Ry/bohr**3)                   (kbar)     P=       52.52
   0.00038354   0.00000000   0.00000000           56.42        0.00        0.00
   0.00000000   0.00038354   0.00000000            0.00       56.42        0.00
   0.00000000   0.00000000   0.00030407            0.00        0.00       44.73


     Writing output data file ./basic.save/

     init_run     :      2.26s CPU      2.64s WALL (       1 calls)
     electrons    :     38.00s CPU     39.07s WALL (       1 calls)
     forces       :      0.71s CPU      0.73s WALL (       1 calls)
     stress       :      1.34s CPU      1.43s WALL (       1 calls)

     Called by init_run:
     wfcinit      :      1.08s CPU      1.32s WALL (       1 calls)
     potinit      :      0.50s CPU      0.54s WALL (       1 calls)
     hinit0       :      0.50s CPU      0.50s WALL (       1 calls)

     Called by electrons:
     c_bands      :     28.89s CPU     29.54s WALL (      10 calls)
     sum_band     :      3.88s CPU      4.11s WALL (      10 calls)
     v_of_rho     :      0.30s CPU      0.31s WALL (      11 calls)
     newd         :      0.78s CPU      0.99s WALL (      11 calls)
     PAW_pot      :      4.53s CPU      4.61s WALL (      11 calls)
     mix_rho      :      0.05s CPU      0.05s WALL (      10 calls)

     Called by c_bands:
     init_us_2    :      0.41s CPU      0.43s WALL (     414 calls)
     cegterg      :     28.06s CPU     28.70s WALL (     180 calls)

     Called by sum_band:
     sum_band:bec :      0.01s CPU      0.01s WALL (     180 calls)
     addusdens    :      0.67s CPU      0.77s WALL (      10 calls)

     Called by *egterg:
     h_psi        :     16.43s CPU     17.05s WALL (     864 calls)
     s_psi        :      2.39s CPU      2.44s WALL (     864 calls)
     g_psi        :      0.07s CPU      0.07s WALL (     666 calls)
     cdiaghg      :      1.26s CPU      1.28s WALL (     846 calls)

     Called by h_psi:
     h_psi:calbec :      2.93s CPU      3.02s WALL (     864 calls)
     vloc_psi     :     10.97s CPU     11.44s WALL (     864 calls)
     add_vuspsi   :      2.41s CPU      2.48s WALL (     864 calls)

     General routines
     calbec       :      4.33s CPU      4.47s WALL (    1134 calls)
     fft          :      0.12s CPU      0.12s WALL (     146 calls)
     ffts         :      0.01s CPU      0.01s WALL (      10 calls)
     fftw         :     11.22s CPU     11.68s WALL (   30146 calls)

     Parallel routines
     fft_scatt_xy :      1.58s CPU      1.64s WALL (   30302 calls)
     fft_scatt_yz :      2.39s CPU      2.53s WALL (   30302 calls)

     PWSCF        :     43.24s CPU     44.93s WALL


   This run was terminated on:  22:50:54  14Aug2020            

=------------------------------------------------------------------------------=
   JOB DONE.
=------------------------------------------------------------------------------=
