
     Program PWSCF v.6.5 starts on 15Aug2020 at  0:14:22 

     This program is part of the open-source Quantum ESPRESSO suite
     for quantum simulation of materials; please cite
         "P. Giannozzi et al., J. Phys.:Condens. Matter 21 395502 (2009);
         "P. Giannozzi et al., J. Phys.:Condens. Matter 29 465901 (2017);
          URL http://www.quantum-espresso.org", 
     in publications or presentations arising from this work. More details at
     http://www.quantum-espresso.org/quote

     Parallel version (MPI), running on     2 processors

     MPI processes distributed on     1 nodes
     R & G space division:  proc/nbgrp/npool/nimage =       2
     Reading input from PbOvcrelax.in

     Current dimensions of program PWSCF are:
     Max number of different atomic species (ntypx) = 10
     Max number of k-points (npk) =  40000
     Max angular momentum in pseudopotentials (lmaxx) =  3

     IMPORTANT: XC functional enforced from input :
     Exchange-correlation= PBE
                           (   1   4   3   4   0   0   0)
     Any further DFT definition will be discarded
     Please, verify this is what you really want

               file O.pbe-n-kjpaw_psl.0.1.UPF: wavefunction(s)  2P renormalized
               file Pb.pbe-dn-kjpaw_psl.0.2.2.UPF: wavefunction(s)  6S renormalized

     Subspace diagonalization in iterative solution of the eigenvalue problem:
     a serial algorithm will be used

     Message from routine setup:
     using ibrav=0 with symmetry is DISCOURAGED, use correct ibrav instead

     Parallelization info
     --------------------
     sticks:   dense  smooth     PW     G-vecs:    dense   smooth      PW
     Min         542     542    152                16820    16820    2560
     Max         543     543    153                16823    16823    2561
     Sum        1085    1085    305                33643    33643    5121



     bravais-lattice index     =            0
     lattice parameter (alat)  =       7.5105  a.u.
     unit-cell volume          =     535.3237 (a.u.)^3
     number of atoms/cell      =            4
     number of atomic types    =            2
     number of electrons       =        40.00
     number of Kohn-Sham states=           24
     kinetic-energy cutoff     =      60.0000  Ry
     charge density cutoff     =     240.0000  Ry
     convergence threshold     =      1.0E-08
     mixing beta               =       0.7000
     number of iterations used =            8  plain     mixing
     Exchange-correlation= PBE
                           (   1   4   3   4   0   0   0)
     nstep                     =           50


     celldm(1)=   7.510528  celldm(2)=   0.000000  celldm(3)=   0.000000
     celldm(4)=   0.000000  celldm(5)=   0.000000  celldm(6)=   0.000000

     crystal axes: (cart. coord. in units of alat)
               a(1) = (   1.000000   0.000000   0.000000 )  
               a(2) = (   0.000000   1.000000   0.000000 )  
               a(3) = (   0.000000   0.000000   1.263587 )  

     reciprocal axes: (cart. coord. in units 2 pi/alat)
               b(1) = (  1.000000  0.000000  0.000000 )  
               b(2) = (  0.000000  1.000000  0.000000 )  
               b(3) = (  0.000000  0.000000  0.791398 )  


     PseudoPot. # 1 for O  read from file:
     ./O.pbe-n-kjpaw_psl.0.1.UPF
     MD5 check sum: 833c495a5d0f9b75bf046115549bffff
     Pseudo is Projector augmented-wave + core cor, Zval =  6.0
     Generated using "atomic" code by A. Dal Corso v.6.3
     Shape of augmentation charge: BESSEL
     Using radial grid of 1095 points,  4 beta functions with: 
                l(1) =   0
                l(2) =   0
                l(3) =   1
                l(4) =   1
     Q(r) pseudized with 0 coefficients 


     PseudoPot. # 2 for Pb read from file:
     ./Pb.pbe-dn-kjpaw_psl.0.2.2.UPF
     MD5 check sum: f59221ed870a8203cfe6076f2d6248d0
     Pseudo is Projector augmented-wave + core cor, Zval = 14.0
     Generated using "atomic" code by A. Dal Corso v.5.0.2 svn rev. 9415
     Shape of augmentation charge: PSQ
     Using radial grid of 1281 points,  6 beta functions with: 
                l(1) =   0
                l(2) =   0
                l(3) =   1
                l(4) =   1
                l(5) =   2
                l(6) =   2
     Q(r) pseudized with 0 coefficients 


     atomic species   valence    mass     pseudopotential
        O              6.00    15.99900     O ( 1.00)
        Pb            14.00   207.20000     Pb( 1.00)

     16 Sym. Ops., with inversion, found ( 8 have fractional translation)



   Cartesian axes

     site n.     atom                  positions (alat units)
         1           Pb  tau(   1) = (   0.0000000   0.5000000   0.3052211  )
         2           Pb  tau(   2) = (   0.5000000   0.0000000   0.9583659  )
         3           O   tau(   3) = (   0.0000000   0.0000000   0.0000000  )
         4           O   tau(   4) = (   0.5000000   0.5000000   0.0000000  )

     number of k points=    18  Marzari-Vanderbilt smearing, width (Ry)=  0.0050
                       cart. coord. in units 2pi/alat
        k(    1) = (   0.0000000   0.0000000   0.0000000), wk =   0.0160000
        k(    2) = (   0.0000000   0.0000000   0.1582796), wk =   0.0320000
        k(    3) = (   0.0000000   0.0000000   0.3165591), wk =   0.0320000
        k(    4) = (   0.0000000   0.2000000   0.0000000), wk =   0.0640000
        k(    5) = (   0.0000000   0.2000000   0.1582796), wk =   0.1280000
        k(    6) = (   0.0000000   0.2000000   0.3165591), wk =   0.1280000
        k(    7) = (   0.0000000   0.4000000   0.0000000), wk =   0.0640000
        k(    8) = (   0.0000000   0.4000000   0.1582796), wk =   0.1280000
        k(    9) = (   0.0000000   0.4000000   0.3165591), wk =   0.1280000
        k(   10) = (   0.2000000   0.2000000   0.0000000), wk =   0.0640000
        k(   11) = (   0.2000000   0.2000000   0.1582796), wk =   0.1280000
        k(   12) = (   0.2000000   0.2000000   0.3165591), wk =   0.1280000
        k(   13) = (   0.2000000   0.4000000   0.0000000), wk =   0.1280000
        k(   14) = (   0.2000000   0.4000000   0.1582796), wk =   0.2560000
        k(   15) = (   0.2000000   0.4000000   0.3165591), wk =   0.2560000
        k(   16) = (   0.4000000   0.4000000   0.0000000), wk =   0.0640000
        k(   17) = (   0.4000000   0.4000000   0.1582796), wk =   0.1280000
        k(   18) = (   0.4000000   0.4000000   0.3165591), wk =   0.1280000

     Dense  grid:    33643 G-vectors     FFT dimensions: (  40,  40,  48)

     Estimated max dynamical RAM per process >      83.95 MB

     Estimated total dynamical RAM >     167.91 MB

     Check: negative core charge=   -0.000006

     Initial potential from superposition of free atoms

     starting charge   39.99529, renormalised to   40.00000
     Starting wfcs are   26 randomized atomic wfcs
     Checking if some PAW data can be deallocated... 

     total cpu time spent up to now is        5.5 secs

     Self-consistent Calculation

     iteration #  1     ecut=    60.00 Ry     beta= 0.70
     Davidson diagonalization with overlap
     ethr =  1.00E-02,  avg # of iterations =  2.3

     total cpu time spent up to now is        9.0 secs

     total energy              =   -1823.57180400 Ry
     Harris-Foulkes estimate   =   -1824.76969286 Ry
     estimated scf accuracy    <       1.46431133 Ry

     iteration #  2     ecut=    60.00 Ry     beta= 0.70
     Davidson diagonalization with overlap
     ethr =  3.66E-03,  avg # of iterations =  4.7

     total cpu time spent up to now is       12.8 secs

     total energy              =   -1822.76593799 Ry
     Harris-Foulkes estimate   =   -1825.89002520 Ry
     estimated scf accuracy    <       9.65008443 Ry

     iteration #  3     ecut=    60.00 Ry     beta= 0.70
     Davidson diagonalization with overlap
     ethr =  3.66E-03,  avg # of iterations =  3.1

     total cpu time spent up to now is       16.4 secs

     total energy              =   -1824.46108357 Ry
     Harris-Foulkes estimate   =   -1824.48930987 Ry
     estimated scf accuracy    <       0.12695358 Ry

     iteration #  4     ecut=    60.00 Ry     beta= 0.70
     Davidson diagonalization with overlap
     ethr =  3.17E-04,  avg # of iterations =  3.6

     total cpu time spent up to now is       19.4 secs

     total energy              =   -1824.45880033 Ry
     Harris-Foulkes estimate   =   -1824.47450663 Ry
     estimated scf accuracy    <       0.03648890 Ry

     iteration #  5     ecut=    60.00 Ry     beta= 0.70
     Davidson diagonalization with overlap
     ethr =  9.12E-05,  avg # of iterations =  3.4

     total cpu time spent up to now is       22.8 secs

     total energy              =   -1824.46843060 Ry
     Harris-Foulkes estimate   =   -1824.46897349 Ry
     estimated scf accuracy    <       0.00184195 Ry

     iteration #  6     ecut=    60.00 Ry     beta= 0.70
     Davidson diagonalization with overlap
     ethr =  4.60E-06,  avg # of iterations =  4.7

     total cpu time spent up to now is       27.3 secs

     total energy              =   -1824.46945070 Ry
     Harris-Foulkes estimate   =   -1824.46963124 Ry
     estimated scf accuracy    <       0.00039197 Ry

     iteration #  7     ecut=    60.00 Ry     beta= 0.70
     Davidson diagonalization with overlap
     ethr =  9.80E-07,  avg # of iterations =  2.3

     total cpu time spent up to now is       19.4 secs

     total energy              =   -1824.46954041 Ry
     Harris-Foulkes estimate   =   -1824.46954920 Ry
     estimated scf accuracy    <       0.00002095 Ry

     iteration #  8     ecut=    60.00 Ry     beta= 0.70
     Davidson diagonalization with overlap
     ethr =  5.24E-08,  avg # of iterations =  4.1

     total cpu time spent up to now is       23.2 secs

     total energy              =   -1824.46954954 Ry
     Harris-Foulkes estimate   =   -1824.46954968 Ry
     estimated scf accuracy    <       0.00000049 Ry

     iteration #  9     ecut=    60.00 Ry     beta= 0.70
     Davidson diagonalization with overlap
     ethr =  1.21E-09,  avg # of iterations =  4.7

     total cpu time spent up to now is       27.9 secs

     total energy              =   -1824.46954983 Ry
     Harris-Foulkes estimate   =   -1824.46954985 Ry
     estimated scf accuracy    <       0.00000004 Ry

     iteration # 10     ecut=    60.00 Ry     beta= 0.70
     Davidson diagonalization with overlap
     ethr =  1.06E-10,  avg # of iterations =  3.0

     total cpu time spent up to now is       31.3 secs

     End of self-consistent calculation

          k = 0.0000 0.0000 0.0000 (  4219 PWs)   bands (ev):

    -9.4933  -8.9685  -7.2563  -7.2563  -7.1988  -7.1876  -7.1121  -7.0416
    -7.0339  -7.0339  -7.0165  -5.6950   1.6044   1.9783   4.6302   4.6302
     7.1337   7.2624   7.2624   8.8056  11.2233  14.3131  14.3131  14.4197

          k = 0.0000 0.0000 0.1583 (  4207 PWs)   bands (ev):

    -9.4844  -8.9622  -7.2401  -7.2401  -7.2004  -7.1830  -7.1037  -7.0533
    -7.0533  -7.0482  -7.0249  -5.6894   0.7355   3.0979   4.6861   4.6861
     7.1194   7.2529   7.2529   8.5642  10.9892  13.4991  13.4991  14.0632

          k = 0.0000 0.0000 0.3166 (  4200 PWs)   bands (ev):

    -9.4700  -8.9519  -7.2210  -7.2028  -7.2028  -7.1517  -7.0956  -7.0956
    -7.0835  -7.0643  -7.0453  -5.6807   0.1632   4.2125   4.7808   4.7808
     7.0966   7.2348   7.2348   7.9412  10.8790  12.8054  12.8054  13.2196

          k = 0.0000 0.2000 0.0000 (  4183 PWs)   bands (ev):

    -9.4149  -8.9983  -7.2377  -7.2368  -7.1704  -7.1649  -7.1198  -7.0553
    -7.0474  -7.0335  -6.9258  -5.7972   1.4745   2.0016   4.7653   4.8685
     6.5151   6.9935   7.0446   8.7078  12.1119  12.6288  14.4818  14.5279

          k = 0.0000 0.2000 0.1583 (  4194 PWs)   bands (ev):

    -9.4107  -8.9951  -7.2320  -7.2225  -7.1726  -7.1584  -7.1180  -7.0707
    -7.0631  -7.0189  -6.9327  -5.7920   0.8533   2.7186   4.7705   4.9149
     6.5723   6.9858   7.0936   8.5386  11.8757  12.0471  13.8233  15.0478

          k = 0.0000 0.2000 0.3166 (  4191 PWs)   bands (ev):

    -9.4041  -8.9898  -7.2152  -7.1959  -7.1847  -7.1488  -7.1294  -7.0878
    -7.0530  -7.0258  -6.9432  -5.7838   0.3693   3.4357   4.6519   4.9932
     6.6773   6.9712   7.4175   8.0605  11.2986  11.7028  13.2013  14.9950

          k = 0.0000 0.4000 0.0000 (  4200 PWs)   bands (ev):

    -9.2485  -9.0951  -7.1920  -7.1889  -7.1526  -7.1423  -7.1001  -7.0716
    -7.0648  -7.0552  -6.6098  -6.1399   1.4405   1.7818   5.2792   5.5017
     5.9955   6.3106   6.7459   7.7179  12.0336  12.3711  14.9149  15.0939

          k = 0.0000 0.4000 0.1583 (  4212 PWs)   bands (ev):

    -9.2518  -9.0978  -7.2084  -7.1835  -7.1667  -7.1532  -7.0893  -7.0596
    -7.0523  -7.0330  -6.6068  -6.1345   1.2231   1.9375   5.0685   5.5258
     5.9055   6.3132   7.0526   7.8296  11.7953  12.3432  14.7111  15.0628

          k = 0.0000 0.4000 0.3166 (  4218 PWs)   bands (ev):

    -9.2570  -9.1022  -7.2255  -7.2032  -7.1701  -7.1542  -7.0673  -7.0521
    -7.0256  -7.0134  -6.6011  -6.1257   0.9889   2.0797   4.8143   5.5658
     5.7512   6.3168   7.5986   7.8857  11.4380  12.2661  14.3168  15.6679

          k = 0.2000 0.2000 0.0000 (  4205 PWs)   bands (ev):

    -9.3522  -9.0229  -7.2413  -7.1898  -7.1488  -7.1470  -7.1272  -7.0564
    -7.0453  -7.0240  -6.8535  -5.8683   1.2770   1.9108   4.6291   5.4846
     6.1160   6.3891   7.5656   8.5351  12.3426  12.4193  13.4450  13.8446

          k = 0.2000 0.2000 0.1583 (  4205 PWs)   bands (ev):

    -9.3510  -9.0209  -7.2262  -7.1996  -7.1539  -7.1445  -7.1100  -7.0709
    -7.0445  -7.0397  -6.8369  -5.8600   0.8757   2.3452   4.4617   5.5381
     6.3114   6.4822   7.5675   8.3345  12.0824  12.4034  12.4874  14.9374

          k = 0.2000 0.2000 0.3166 (  4204 PWs)   bands (ev):

    -9.3490  -9.0177  -7.2121  -7.1910  -7.1623  -7.1279  -7.1039  -7.0879
    -7.0820  -7.0358  -6.8106  -5.8469   0.4992   2.8420   4.1746   5.6530
     6.1593   7.1693   7.5709   7.9196  11.2691  12.2820  12.4859  15.6774

          k = 0.2000 0.4000 0.0000 (  4213 PWs)   bands (ev):

    -9.2223  -9.1017  -7.1893  -7.1572  -7.1448  -7.1395  -7.0842  -7.0539
    -7.0455  -7.0378  -6.5589  -6.1410   1.1331   1.4859   5.0250   5.7388
     6.2307   6.2818   7.3942   7.6983  11.5454  11.8388  13.9917  14.3931

          k = 0.2000 0.4000 0.1583 (  4203 PWs)   bands (ev):

    -9.2248  -9.1029  -7.1911  -7.1766  -7.1383  -7.1295  -7.0885  -7.0714
    -7.0361  -7.0319  -6.5350  -6.1246   1.0259   1.5902   4.6755   5.5141
     6.3902   6.6717   7.3906   7.6750  11.5979  11.9109  13.5782  14.5799

          k = 0.2000 0.4000 0.3166 (  4207 PWs)   bands (ev):

    -9.2288  -9.1049  -7.2062  -7.1853  -7.1409  -7.1263  -7.0786  -7.0622
    -7.0469  -7.0338  -6.4969  -6.0987   0.8938   1.7227   4.3128   5.2579
     6.4843   7.1400   7.3886   7.6195  11.6137  12.3734  13.1470  14.4944

          k = 0.4000 0.4000 0.0000 (  4199 PWs)   bands (ev):

    -9.1735  -9.1297  -7.1714  -7.1706  -7.1144  -7.0828  -7.0397  -7.0323
    -7.0257  -7.0082  -6.3991  -6.2121   0.7225   0.8931   5.2229   5.5588
     6.6336   7.3491   7.3712   7.8292  10.3573  10.5310  13.8808  14.1940

          k = 0.4000 0.4000 0.1583 (  4206 PWs)   bands (ev):

    -9.1741  -9.1293  -7.1664  -7.1599  -7.1142  -7.0834  -7.0621  -7.0453
    -7.0365  -7.0333  -6.3528  -6.1751   0.7225   0.9410   4.9046   5.3804
     6.7582   7.1874   7.4041   7.8286  10.8249  10.8366  13.8271  14.3712

          k = 0.4000 0.4000 0.3166 (  4186 PWs)   bands (ev):

    -9.1750  -9.1287  -7.1694  -7.1381  -7.1151  -7.0865  -7.0801  -7.0745
    -7.0619  -7.0537  -6.2855  -6.1196   0.7269   1.0175   4.5290   5.1361
     6.6725   7.0136   7.4626   7.8278  11.8366  11.8954  13.1464  14.3043

     the Fermi energy is     9.4528 ev

!    total energy              =   -1824.46954984 Ry
     Harris-Foulkes estimate   =   -1824.46954984 Ry
     estimated scf accuracy    <          6.7E-10 Ry

     total all-electron energy =    -83829.220265 Ry

     The total energy is the sum of the following terms:

     one-electron contribution =    -100.42395690 Ry
     hartree contribution      =      83.36799603 Ry
     xc contribution           =    -103.68780061 Ry
     ewald contribution        =    -227.77260671 Ry
     one-center paw contrib.   =   -1475.95318166 Ry
     smearing contrib. (-TS)   =       0.00000000 Ry

     convergence has been achieved in  10 iterations

     Forces acting on atoms (cartesian axes, Ry/au):

     atom    1 type  2   force =     0.00000000    0.00000000    0.00003285
     atom    2 type  2   force =     0.00000000    0.00000000   -0.00003285
     atom    3 type  1   force =     0.00000000    0.00000000    0.00000000
     atom    4 type  1   force =     0.00000000    0.00000000    0.00000000

     Total force =     0.000046     Total SCF correction =     0.000057
     SCF correction compared to forces is large: reduce conv_thr to get better values


     Computing stress (Cartesian axis) and pressure

          total   stress  (Ry/bohr**3)                   (kbar)     P=       34.57
   0.00027777   0.00000000   0.00000000           40.86        0.00        0.00
   0.00000000   0.00027777   0.00000000            0.00       40.86        0.00
   0.00000000   0.00000000   0.00014936            0.00        0.00       21.97


     BFGS Geometry Optimization

     number of scf cycles    =   1
     number of bfgs steps    =   0

     enthalpy new            =   -1824.4695498389 Ry

     new trust radius        =       0.0321343914 bohr
     new conv_thr            =       0.0000000100 Ry

     new unit-cell volume =    544.81125 a.u.^3 (    80.73270 Ang^3 )
     density =      9.18167 g/cm^3

CELL_PARAMETERS (alat=  7.51052754)
   1.006944354   0.000000000   0.000000000
   0.000000000   1.006944354   0.000000000
   0.000000000   0.000000000   1.268305265

ATOMIC_POSITIONS (crystal)
Pb            0.0000000000        0.5000000000        0.2415547480
Pb            0.5000000000        0.0000000000        0.7584452520
O             0.0000000000        0.0000000000        0.0000000000
O             0.5000000000        0.5000000000        0.0000000000



     Writing output data file ./basic.save/
     NEW-OLD atomic charge density approx. for the potential

     Check: negative core charge=   -0.000006
     extrapolated charge   40.69649, renormalised to   40.00000

     total cpu time spent up to now is       40.7 secs

     Self-consistent Calculation

     iteration #  1     ecut=    60.00 Ry     beta= 0.70
     Davidson diagonalization with overlap
     ethr =  1.00E-06,  avg # of iterations =  5.9

     total cpu time spent up to now is       37.0 secs

     total energy              =   -1824.34153220 Ry
     Harris-Foulkes estimate   =   -1822.78787013 Ry
     estimated scf accuracy    <       0.12890018 Ry

     iteration #  2     ecut=    60.00 Ry     beta= 0.70
     Davidson diagonalization with overlap
     ethr =  3.22E-04,  avg # of iterations =  4.0

     total cpu time spent up to now is       42.5 secs

     total energy              =   -1824.40856536 Ry
     Harris-Foulkes estimate   =   -1824.62747971 Ry
     estimated scf accuracy    <       0.70289595 Ry

     iteration #  3     ecut=    60.00 Ry     beta= 0.70
     Davidson diagonalization with overlap
     ethr =  3.22E-04,  avg # of iterations =  3.0

     total cpu time spent up to now is       45.8 secs

     total energy              =   -1824.47554989 Ry
     Harris-Foulkes estimate   =   -1824.48168556 Ry
     estimated scf accuracy    <       0.06387200 Ry

     iteration #  4     ecut=    60.00 Ry     beta= 0.70
     Davidson diagonalization with overlap
     ethr =  1.60E-04,  avg # of iterations =  1.0

     total cpu time spent up to now is       48.4 secs

     total energy              =   -1824.47568473 Ry
     Harris-Foulkes estimate   =   -1824.47692305 Ry
     estimated scf accuracy    <       0.04268860 Ry

     iteration #  5     ecut=    60.00 Ry     beta= 0.70
     Davidson diagonalization with overlap
     ethr =  1.07E-04,  avg # of iterations =  1.0

     total cpu time spent up to now is       51.0 secs

     total energy              =   -1824.47415002 Ry
     Harris-Foulkes estimate   =   -1824.47625591 Ry
     estimated scf accuracy    <       0.03670289 Ry

     iteration #  6     ecut=    60.00 Ry     beta= 0.70
     Davidson diagonalization with overlap
     ethr =  9.18E-05,  avg # of iterations =  1.0

     total cpu time spent up to now is       53.6 secs

     total energy              =   -1824.47111099 Ry
     Harris-Foulkes estimate   =   -1824.47459812 Ry
     estimated scf accuracy    <       0.02633935 Ry

     iteration #  7     ecut=    60.00 Ry     beta= 0.70
     Davidson diagonalization with overlap
     ethr =  6.58E-05,  avg # of iterations =  1.0

     total cpu time spent up to now is      108.4 secs

     total energy              =   -1824.46987443 Ry
     Harris-Foulkes estimate   =   -1824.47191087 Ry
     estimated scf accuracy    <       0.01057336 Ry

     iteration #  8     ecut=    60.00 Ry     beta= 0.70
     Davidson diagonalization with overlap
     ethr =  2.64E-05,  avg # of iterations =  1.8

     total cpu time spent up to now is      111.1 secs

     total energy              =   -1824.47014165 Ry
     Harris-Foulkes estimate   =   -1824.47064853 Ry
     estimated scf accuracy    <       0.00234278 Ry

     iteration #  9     ecut=    60.00 Ry     beta= 0.70
     Davidson diagonalization with overlap
     ethr =  5.86E-06,  avg # of iterations =  4.1

     total cpu time spent up to now is      115.6 secs

     total energy              =   -1824.47143519 Ry
     Harris-Foulkes estimate   =   -1824.47149388 Ry
     estimated scf accuracy    <       0.00053739 Ry

     iteration # 10     ecut=    60.00 Ry     beta= 0.70
     Davidson diagonalization with overlap
     ethr =  1.34E-06,  avg # of iterations =  1.2

     total cpu time spent up to now is      118.7 secs

     total energy              =   -1824.47155722 Ry
     Harris-Foulkes estimate   =   -1824.47146436 Ry
     estimated scf accuracy    <       0.00040356 Ry

     iteration # 11     ecut=    60.00 Ry     beta= 0.70
     Davidson diagonalization with overlap
     ethr =  1.01E-06,  avg # of iterations =  2.1

     total cpu time spent up to now is      121.8 secs

     total energy              =   -1824.47140335 Ry
     Harris-Foulkes estimate   =   -1824.47166757 Ry
     estimated scf accuracy    <       0.00122377 Ry

     iteration # 12     ecut=    60.00 Ry     beta= 0.70
     Davidson diagonalization with overlap
     ethr =  1.01E-06,  avg # of iterations =  2.0

     total cpu time spent up to now is      124.6 secs

     total energy              =   -1824.47136237 Ry
     Harris-Foulkes estimate   =   -1824.47143555 Ry
     estimated scf accuracy    <       0.00032557 Ry

     iteration # 13     ecut=    60.00 Ry     beta= 0.70
     Davidson diagonalization with overlap
     ethr =  8.14E-07,  avg # of iterations =  1.6

     total cpu time spent up to now is      127.3 secs

     total energy              =   -1824.47138978 Ry
     Harris-Foulkes estimate   =   -1824.47138042 Ry
     estimated scf accuracy    <       0.00004893 Ry

     iteration # 14     ecut=    60.00 Ry     beta= 0.70
     Davidson diagonalization with overlap
     ethr =  1.22E-07,  avg # of iterations =  3.5

     total cpu time spent up to now is      130.9 secs

     total energy              =   -1824.47139808 Ry
     Harris-Foulkes estimate   =   -1824.47140364 Ry
     estimated scf accuracy    <       0.00003832 Ry

     iteration # 15     ecut=    60.00 Ry     beta= 0.70
     Davidson diagonalization with overlap
     ethr =  9.58E-08,  avg # of iterations =  1.1

     total cpu time spent up to now is      134.5 secs

     total energy              =   -1824.47140023 Ry
     Harris-Foulkes estimate   =   -1824.47139905 Ry
     estimated scf accuracy    <       0.00001343 Ry

     iteration # 16     ecut=    60.00 Ry     beta= 0.70
     Davidson diagonalization with overlap
     ethr =  3.36E-08,  avg # of iterations =  1.2

     total cpu time spent up to now is      137.6 secs

     total energy              =   -1824.47139912 Ry
     Harris-Foulkes estimate   =   -1824.47140042 Ry
     estimated scf accuracy    <       0.00001836 Ry

     iteration # 17     ecut=    60.00 Ry     beta= 0.70
     Davidson diagonalization with overlap
     ethr =  3.36E-08,  avg # of iterations =  1.0

     total cpu time spent up to now is      129.1 secs

     total energy              =   -1824.47139810 Ry
     Harris-Foulkes estimate   =   -1824.47139928 Ry
     estimated scf accuracy    <       0.00001077 Ry

     iteration # 18     ecut=    60.00 Ry     beta= 0.70
     Davidson diagonalization with overlap
     ethr =  2.69E-08,  avg # of iterations =  1.1

     total cpu time spent up to now is      131.7 secs

     total energy              =   -1824.47139829 Ry
     Harris-Foulkes estimate   =   -1824.47139844 Ry
     estimated scf accuracy    <       0.00000281 Ry

     iteration # 19     ecut=    60.00 Ry     beta= 0.70
     Davidson diagonalization with overlap
     ethr =  7.03E-09,  avg # of iterations =  2.1

     total cpu time spent up to now is      134.5 secs

     total energy              =   -1824.47139834 Ry
     Harris-Foulkes estimate   =   -1824.47139848 Ry
     estimated scf accuracy    <       0.00000166 Ry

     iteration # 20     ecut=    60.00 Ry     beta= 0.70
     Davidson diagonalization with overlap
     ethr =  4.14E-09,  avg # of iterations =  2.9

     total cpu time spent up to now is      137.4 secs

     total energy              =   -1824.47139850 Ry
     Harris-Foulkes estimate   =   -1824.47139847 Ry
     estimated scf accuracy    <       0.00000038 Ry

     iteration # 21     ecut=    60.00 Ry     beta= 0.70
     Davidson diagonalization with overlap
     ethr =  9.48E-10,  avg # of iterations =  4.0

     total cpu time spent up to now is      141.1 secs

     total energy              =   -1824.47139853 Ry
     Harris-Foulkes estimate   =   -1824.47139860 Ry
     estimated scf accuracy    <       0.00000018 Ry

     iteration # 22     ecut=    60.00 Ry     beta= 0.70
     Davidson diagonalization with overlap
     ethr =  4.38E-10,  avg # of iterations =  3.1

     total cpu time spent up to now is      144.7 secs

     total energy              =   -1824.47139856 Ry
     Harris-Foulkes estimate   =   -1824.47139857 Ry
     estimated scf accuracy    <       0.00000016 Ry

     iteration # 23     ecut=    60.00 Ry     beta= 0.70
     Davidson diagonalization with overlap
     ethr =  4.00E-10,  avg # of iterations =  1.0

     total cpu time spent up to now is      147.5 secs

     total energy              =   -1824.47139856 Ry
     Harris-Foulkes estimate   =   -1824.47139856 Ry
     estimated scf accuracy    <       0.00000009 Ry

     iteration # 24     ecut=    60.00 Ry     beta= 0.70
     Davidson diagonalization with overlap
     ethr =  2.33E-10,  avg # of iterations =  1.0

     total cpu time spent up to now is      150.1 secs

     total energy              =   -1824.47139856 Ry
     Harris-Foulkes estimate   =   -1824.47139856 Ry
     estimated scf accuracy    <       0.00000006 Ry

     iteration # 25     ecut=    60.00 Ry     beta= 0.70
     Davidson diagonalization with overlap
     ethr =  1.59E-10,  avg # of iterations =  1.0

     total cpu time spent up to now is      152.7 secs

     total energy              =   -1824.47139856 Ry
     Harris-Foulkes estimate   =   -1824.47139856 Ry
     estimated scf accuracy    <       0.00000002 Ry

     iteration # 26     ecut=    60.00 Ry     beta= 0.70
     Davidson diagonalization with overlap
     ethr =  5.03E-11,  avg # of iterations =  2.9

     total cpu time spent up to now is      155.9 secs

     End of self-consistent calculation

          k = 0.0000 0.0000 0.0000 (  4219 PWs)   bands (ev):

    -9.5934  -9.1223  -7.4947  -7.4947  -7.4422  -7.4262  -7.3609  -7.2939
    -7.2863  -7.2863  -7.2698  -5.9698   1.4166   1.7439   4.4800   4.4800
     6.9376   7.0627   7.0627   8.5161  10.9056  13.9904  13.9904  14.1208

          k = 0.0000 0.0000 0.1577 (  4207 PWs)   bands (ev):

    -9.5850  -9.1162  -7.4793  -7.4793  -7.4383  -7.4273  -7.3528  -7.3045
    -7.3045  -7.3000  -7.2778  -5.9647   0.5586   2.8370   4.5347   4.5347
     6.9227   7.0534   7.0534   8.2948  10.6840  13.1976  13.1976  13.7370

          k = 0.0000 0.0000 0.3154 (  4200 PWs)   bands (ev):

    -9.5713  -9.1062  -7.4578  -7.4436  -7.4436  -7.3979  -7.3448  -7.3448
    -7.3334  -7.3149  -7.2973  -5.9567   0.0011   3.8931   4.6275   4.6275
     6.8992   7.0355   7.0355   7.7278  10.5789  12.5169  12.5169  12.8939

          k = 0.0000 0.1986 0.0000 (  4183 PWs)   bands (ev):

    -9.5213  -9.1484  -7.4767  -7.4763  -7.4160  -7.4051  -7.3675  -7.3083
    -7.2992  -7.2858  -7.1774  -6.0705   1.2868   1.7603   4.6155   4.7135
     6.3364   6.7989   6.8534   8.4276  11.7854  12.3423  14.1648  14.1998

          k = 0.0000 0.1986 0.1577 (  4194 PWs)   bands (ev):

    -9.5176  -9.1453  -7.4718  -7.4621  -7.4126  -7.4047  -7.3653  -7.3215
    -7.3156  -7.2720  -7.1838  -6.0658   0.6715   2.4684   4.6142   4.7591
     6.3916   6.7914   6.9023   8.2713  11.5621  11.7645  13.5138  14.7177

          k = 0.0000 0.1986 0.3154 (  4191 PWs)   bands (ev):

    -9.5116  -9.1401  -7.4558  -7.4359  -7.4247  -7.3946  -7.3774  -7.3386
    -7.3046  -7.2786  -7.1937  -6.0582   0.2006   3.1587   4.4979   4.8361
     6.4872   6.7772   7.2136   7.8290  11.0286  11.3924  12.9039  14.6537

          k = 0.0000 0.3972 0.0000 (  4200 PWs)   bands (ev):

    -9.3708  -9.2341  -7.4332  -7.4312  -7.3953  -7.3876  -7.3504  -7.3223
    -7.3155  -7.3081  -6.8640  -6.4049   1.2402   1.5507   5.1245   5.3345
     5.8304   6.1285   6.5594   7.4886  11.7389  12.0627  14.5670  14.7508

          k = 0.0000 0.3972 0.1577 (  4212 PWs)   bands (ev):

    -9.3742  -9.2367  -7.4499  -7.4252  -7.4107  -7.3962  -7.3400  -7.3107
    -7.3052  -7.2853  -6.8610  -6.3997   1.0258   1.7101   4.9146   5.3584
     5.7375   6.1314   6.8567   7.5982  11.5066  12.0358  14.3788  14.7228

          k = 0.0000 0.3972 0.3154 (  4218 PWs)   bands (ev):

    -9.3795  -9.2410  -7.4661  -7.4455  -7.4128  -7.3973  -7.3191  -7.3048
    -7.2783  -7.2668  -6.8554  -6.3912   0.8004   1.8536   4.6619   5.3983
     5.5810   6.1355   7.3792   7.6558  11.1617  11.9596  13.9933  15.3217

          k = 0.1986 0.1986 0.0000 (  4205 PWs)   bands (ev):

    -9.4643  -9.1703  -7.4804  -7.4317  -7.3943  -7.3906  -7.3740  -7.3095
    -7.2969  -7.2769  -7.1039  -6.1410   1.0942   1.6701   4.4838   5.3174
     5.9467   6.2125   7.3620   8.2614  12.0639  12.1033  13.1411  13.5113

          k = 0.1986 0.1986 0.1577 (  4205 PWs)   bands (ev):

    -9.4634  -9.1683  -7.4661  -7.4409  -7.3955  -7.3916  -7.3578  -7.3227
    -7.2962  -7.2920  -7.0883  -6.1333   0.6934   2.1063   4.3152   5.3699
     6.1350   6.3016   7.3640   8.0731  11.7902  12.1259  12.1704  14.6006

          k = 0.1986 0.1986 0.3154 (  4204 PWs)   bands (ev):

    -9.4619  -9.1651  -7.4527  -7.4319  -7.4043  -7.3754  -7.3528  -7.3371
    -7.3330  -7.2881  -7.0636  -6.1211   0.3263   2.5898   4.0350   5.4827
     5.9841   6.9534   7.3674   7.6907  10.9961  11.9633  12.2104  15.3297

          k = 0.1986 0.3972 0.0000 (  4213 PWs)   bands (ev):

    -9.3478  -9.2405  -7.4312  -7.4012  -7.3900  -7.3835  -7.3346  -7.3055
    -7.2984  -7.2902  -6.8133  -6.4068   0.9463   1.2700   4.8754   5.5764
     6.0494   6.0989   7.1926   7.4634  11.2656  11.5454  13.6792  14.0415

          k = 0.1986 0.3972 0.1577 (  4203 PWs)   bands (ev):

    -9.3503  -9.2416  -7.4333  -7.4193  -7.3831  -7.3745  -7.3393  -7.3220
    -7.2894  -7.2845  -6.7908  -6.3914   0.8385   1.3779   4.5313   5.3539
     6.2064   6.4765   7.1873   7.4416  11.3166  11.6223  13.2646  14.2440

          k = 0.1986 0.3972 0.3154 (  4207 PWs)   bands (ev):

    -9.3544  -9.2436  -7.4477  -7.4281  -7.3855  -7.3715  -7.3295  -7.3140
    -7.2989  -7.2863  -6.7548  -6.3670   0.7100   1.5114   4.1743   5.1008
     6.2986   6.9292   7.1740   7.3946  11.3352  12.0768  12.8503  14.1756

          k = 0.3972 0.3972 0.0000 (  4199 PWs)   bands (ev):

    -9.3055  -9.2666  -7.4147  -7.4140  -7.3603  -7.3301  -7.2934  -7.2868
    -7.2785  -7.2619  -6.6572  -6.4767   0.5517   0.7095   5.0744   5.4070
     6.4196   7.1305   7.1480   7.6211  10.1029  10.2619  13.5880  13.8856

          k = 0.3972 0.3972 0.1577 (  4206 PWs)   bands (ev):

    -9.3060  -9.2662  -7.4099  -7.4039  -7.3605  -7.3307  -7.3137  -7.2987
    -7.2884  -7.2870  -6.6138  -6.4420   0.5511   0.7589   4.7582   5.2299
     6.5367   6.9534   7.2026   7.6206  10.5665  10.5682  13.5217  14.0552

          k = 0.3972 0.3972 0.3154 (  4186 PWs)   bands (ev):

    -9.3069  -9.2655  -7.4128  -7.3831  -7.3623  -7.3339  -7.3303  -7.3232
    -7.3149  -7.3067  -6.5504  -6.3898   0.5558   0.8368   4.3870   4.9882
     6.4412   6.7883   7.2603   7.6200  11.5604  11.6298  12.8475  13.9836

     the Fermi energy is     9.1670 ev

!    total energy              =   -1824.47139857 Ry
     Harris-Foulkes estimate   =   -1824.47139857 Ry
     estimated scf accuracy    <          1.2E-09 Ry

     total all-electron energy =    -83829.222113 Ry

     The total energy is the sum of the following terms:

     one-electron contribution =    -102.30664322 Ry
     hartree contribution      =      83.96476097 Ry
     xc contribution           =    -103.64778866 Ry
     ewald contribution        =    -226.53037205 Ry
     one-center paw contrib.   =   -1475.95135562 Ry
     smearing contrib. (-TS)   =       0.00000000 Ry

     convergence has been achieved in  26 iterations

     Forces acting on atoms (cartesian axes, Ry/au):

     atom    1 type  2   force =     0.00000000    0.00000000   -0.00826108
     atom    2 type  2   force =     0.00000000    0.00000000    0.00826108
     atom    3 type  1   force =     0.00000000    0.00000000    0.00000000
     atom    4 type  1   force =     0.00000000    0.00000000    0.00000000

     Total force =     0.011683     Total SCF correction =     0.000059


     Computing stress (Cartesian axis) and pressure

          total   stress  (Ry/bohr**3)                   (kbar)     P=       18.98
   0.00016282   0.00000000   0.00000000           23.95        0.00        0.00
   0.00000000   0.00016282   0.00000000            0.00       23.95        0.00
   0.00000000   0.00000000   0.00006146            0.00        0.00        9.04


     number of scf cycles    =   2
     number of bfgs steps    =   1

     enthalpy old            =   -1824.4695498389 Ry
     enthalpy new            =   -1824.4713985673 Ry

     CASE: enthalpy_new < enthalpy_old

     new trust radius        =       0.0354137645 bohr
     new conv_thr            =       0.0000000008 Ry

     new unit-cell volume =    554.83336 a.u.^3 (    82.21782 Ang^3 )
     density =      9.01582 g/cm^3

CELL_PARAMETERS (alat=  7.51052754)
   1.014583144   0.000000000   0.000000000
   0.000000000   1.014583144   0.000000000
   0.000000000   0.000000000   1.272260224

ATOMIC_POSITIONS (crystal)
Pb            0.0000000000        0.5000000000        0.2402500475
Pb            0.5000000000        0.0000000000        0.7597499525
O             0.0000000000        0.0000000000        0.0000000000
O             0.5000000000        0.5000000000        0.0000000000



     Writing output data file ./basic.save/
     NEW-OLD atomic charge density approx. for the potential

     Check: negative core charge=   -0.000007
     extrapolated charge   40.72245, renormalised to   40.00000

     total cpu time spent up to now is      153.8 secs

     Self-consistent Calculation

     iteration #  1     ecut=    60.00 Ry     beta= 0.70
     Davidson diagonalization with overlap
     ethr =  1.00E-06,  avg # of iterations =  9.0

     total cpu time spent up to now is      162.9 secs

     total energy              =   -1824.33143511 Ry
     Harris-Foulkes estimate   =   -1822.69799334 Ry
     estimated scf accuracy    <       0.13934195 Ry

     iteration #  2     ecut=    60.00 Ry     beta= 0.70
     Davidson diagonalization with overlap
     ethr =  3.48E-04,  avg # of iterations =  4.0

     total cpu time spent up to now is      169.1 secs

     total energy              =   -1824.40426658 Ry
     Harris-Foulkes estimate   =   -1824.64441124 Ry
     estimated scf accuracy    <       0.77516476 Ry

     iteration #  3     ecut=    60.00 Ry     beta= 0.70
     Davidson diagonalization with overlap
     ethr =  3.48E-04,  avg # of iterations =  3.0

     total cpu time spent up to now is      172.6 secs

     total energy              =   -1824.47734428 Ry
     Harris-Foulkes estimate   =   -1824.48406893 Ry
     estimated scf accuracy    <       0.07059353 Ry

     iteration #  4     ecut=    60.00 Ry     beta= 0.70
     Davidson diagonalization with overlap
     ethr =  1.76E-04,  avg # of iterations =  1.0

     total cpu time spent up to now is      175.1 secs

     total energy              =   -1824.47720852 Ry
     Harris-Foulkes estimate   =   -1824.47881713 Ry
     estimated scf accuracy    <       0.04730204 Ry

     iteration #  5     ecut=    60.00 Ry     beta= 0.70
     Davidson diagonalization with overlap
     ethr =  1.18E-04,  avg # of iterations =  1.0

     total cpu time spent up to now is      168.4 secs

     total energy              =   -1824.47564182 Ry
     Harris-Foulkes estimate   =   -1824.47785255 Ry
     estimated scf accuracy    <       0.03955794 Ry

     iteration #  6     ecut=    60.00 Ry     beta= 0.70
     Davidson diagonalization with overlap
     ethr =  9.89E-05,  avg # of iterations =  1.0

     total cpu time spent up to now is      171.1 secs

     total energy              =   -1824.47235461 Ry
     Harris-Foulkes estimate   =   -1824.47612513 Ry
     estimated scf accuracy    <       0.02851066 Ry

     iteration #  7     ecut=    60.00 Ry     beta= 0.70
     Davidson diagonalization with overlap
     ethr =  7.13E-05,  avg # of iterations =  1.0

     total cpu time spent up to now is      174.1 secs

     total energy              =   -1824.47082782 Ry
     Harris-Foulkes estimate   =   -1824.47321964 Ry
     estimated scf accuracy    <       0.01136326 Ry

     iteration #  8     ecut=    60.00 Ry     beta= 0.70
     Davidson diagonalization with overlap
     ethr =  2.84E-05,  avg # of iterations =  2.1

     total cpu time spent up to now is      176.9 secs

     total energy              =   -1824.47138666 Ry
     Harris-Foulkes estimate   =   -1824.47177917 Ry
     estimated scf accuracy    <       0.00192099 Ry

     iteration #  9     ecut=    60.00 Ry     beta= 0.70
     Davidson diagonalization with overlap
     ethr =  4.80E-06,  avg # of iterations =  4.1

     total cpu time spent up to now is      181.9 secs

     total energy              =   -1824.47270028 Ry
     Harris-Foulkes estimate   =   -1824.47277049 Ry
     estimated scf accuracy    <       0.00061775 Ry

     iteration # 10     ecut=    60.00 Ry     beta= 0.70
     Davidson diagonalization with overlap
     ethr =  1.54E-06,  avg # of iterations =  1.5

     total cpu time spent up to now is      185.2 secs

     total energy              =   -1824.47279478 Ry
     Harris-Foulkes estimate   =   -1824.47274478 Ry
     estimated scf accuracy    <       0.00048466 Ry

     iteration # 11     ecut=    60.00 Ry     beta= 0.70
     Davidson diagonalization with overlap
     ethr =  1.21E-06,  avg # of iterations =  2.2

     total cpu time spent up to now is      188.5 secs

     total energy              =   -1824.47267264 Ry
     Harris-Foulkes estimate   =   -1824.47293133 Ry
     estimated scf accuracy    <       0.00127768 Ry

     iteration # 12     ecut=    60.00 Ry     beta= 0.70
     Davidson diagonalization with overlap
     ethr =  1.21E-06,  avg # of iterations =  2.0

     total cpu time spent up to now is      191.3 secs

     total energy              =   -1824.47263053 Ry
     Harris-Foulkes estimate   =   -1824.47270492 Ry
     estimated scf accuracy    <       0.00035870 Ry

     iteration # 13     ecut=    60.00 Ry     beta= 0.70
     Davidson diagonalization with overlap
     ethr =  8.97E-07,  avg # of iterations =  1.1

     total cpu time spent up to now is      182.0 secs

     total energy              =   -1824.47265665 Ry
     Harris-Foulkes estimate   =   -1824.47264931 Ry
     estimated scf accuracy    <       0.00006192 Ry

     iteration # 14     ecut=    60.00 Ry     beta= 0.70
     Davidson diagonalization with overlap
     ethr =  1.55E-07,  avg # of iterations =  3.1

     total cpu time spent up to now is      185.7 secs

     total energy              =   -1824.47266629 Ry
     Harris-Foulkes estimate   =   -1824.47267103 Ry
     estimated scf accuracy    <       0.00004452 Ry

     iteration # 15     ecut=    60.00 Ry     beta= 0.70
     Davidson diagonalization with overlap
     ethr =  1.11E-07,  avg # of iterations =  1.4

     total cpu time spent up to now is      188.5 secs

     total energy              =   -1824.47266835 Ry
     Harris-Foulkes estimate   =   -1824.47266766 Ry
     estimated scf accuracy    <       0.00002237 Ry

     iteration # 16     ecut=    60.00 Ry     beta= 0.70
     Davidson diagonalization with overlap
     ethr =  5.59E-08,  avg # of iterations =  1.1

     total cpu time spent up to now is      191.7 secs

     total energy              =   -1824.47266991 Ry
     Harris-Foulkes estimate   =   -1824.47266865 Ry
     estimated scf accuracy    <       0.00002549 Ry

     iteration # 17     ecut=    60.00 Ry     beta= 0.70
     Davidson diagonalization with overlap
     ethr =  5.59E-08,  avg # of iterations =  1.0

     total cpu time spent up to now is      194.4 secs

     total energy              =   -1824.47266839 Ry
     Harris-Foulkes estimate   =   -1824.47267005 Ry
     estimated scf accuracy    <       0.00002814 Ry

     iteration # 18     ecut=    60.00 Ry     beta= 0.70
     Davidson diagonalization with overlap
     ethr =  5.59E-08,  avg # of iterations =  1.0

     total cpu time spent up to now is      197.4 secs

     total energy              =   -1824.47266748 Ry
     Harris-Foulkes estimate   =   -1824.47266851 Ry
     estimated scf accuracy    <       0.00001753 Ry

     iteration # 19     ecut=    60.00 Ry     beta= 0.70
     Davidson diagonalization with overlap
     ethr =  4.38E-08,  avg # of iterations =  1.0

     total cpu time spent up to now is      200.1 secs

     total energy              =   -1824.47266757 Ry
     Harris-Foulkes estimate   =   -1824.47266762 Ry
     estimated scf accuracy    <       0.00000804 Ry

     iteration # 20     ecut=    60.00 Ry     beta= 0.70
     Davidson diagonalization with overlap
     ethr =  2.01E-08,  avg # of iterations =  1.0

     total cpu time spent up to now is      203.2 secs

     total energy              =   -1824.47266631 Ry
     Harris-Foulkes estimate   =   -1824.47266765 Ry
     estimated scf accuracy    <       0.00000777 Ry

     iteration # 21     ecut=    60.00 Ry     beta= 0.70
     Davidson diagonalization with overlap
     ethr =  1.94E-08,  avg # of iterations =  2.3

     total cpu time spent up to now is      206.1 secs

     total energy              =   -1824.47266668 Ry
     Harris-Foulkes estimate   =   -1824.47266675 Ry
     estimated scf accuracy    <       0.00000053 Ry

     iteration # 22     ecut=    60.00 Ry     beta= 0.70
     Davidson diagonalization with overlap
     ethr =  1.32E-09,  avg # of iterations =  4.0

     total cpu time spent up to now is      211.1 secs

     total energy              =   -1824.47266708 Ry
     Harris-Foulkes estimate   =   -1824.47266735 Ry
     estimated scf accuracy    <       0.00000164 Ry

     iteration # 23     ecut=    60.00 Ry     beta= 0.70
     Davidson diagonalization with overlap
     ethr =  1.32E-09,  avg # of iterations =  3.0

     total cpu time spent up to now is      262.2 secs

     total energy              =   -1824.47266711 Ry
     Harris-Foulkes estimate   =   -1824.47266713 Ry
     estimated scf accuracy    <       0.00000013 Ry

     iteration # 24     ecut=    60.00 Ry     beta= 0.70
     Davidson diagonalization with overlap
     ethr =  3.14E-10,  avg # of iterations =  3.2

     total cpu time spent up to now is      266.4 secs

     total energy              =   -1824.47266715 Ry
     Harris-Foulkes estimate   =   -1824.47266720 Ry
     estimated scf accuracy    <       0.00000017 Ry

     iteration # 25     ecut=    60.00 Ry     beta= 0.70
     Davidson diagonalization with overlap
     ethr =  3.14E-10,  avg # of iterations =  2.0

     total cpu time spent up to now is      269.8 secs

     total energy              =   -1824.47266715 Ry
     Harris-Foulkes estimate   =   -1824.47266716 Ry
     estimated scf accuracy    <          8.9E-09 Ry

     iteration # 26     ecut=    60.00 Ry     beta= 0.70
     Davidson diagonalization with overlap
     ethr =  2.23E-11,  avg # of iterations =  3.6

     total cpu time spent up to now is      274.1 secs

     total energy              =   -1824.47266716 Ry
     Harris-Foulkes estimate   =   -1824.47266716 Ry
     estimated scf accuracy    <       0.00000002 Ry

     iteration # 27     ecut=    60.00 Ry     beta= 0.70
     Davidson diagonalization with overlap
     ethr =  2.23E-11,  avg # of iterations =  2.2

     total cpu time spent up to now is      277.1 secs

     total energy              =   -1824.47266716 Ry
     Harris-Foulkes estimate   =   -1824.47266716 Ry
     estimated scf accuracy    <          1.6E-09 Ry

     iteration # 28     ecut=    60.00 Ry     beta= 0.70
     Davidson diagonalization with overlap
     ethr =  4.00E-12,  avg # of iterations =  3.0

     total cpu time spent up to now is      281.1 secs

     End of self-consistent calculation

          k = 0.0000 0.0000 0.0000 (  4219 PWs)   bands (ev):

    -9.7231  -9.3041  -7.7341  -7.7341  -7.6860  -7.6628  -7.6070  -7.5435
    -7.5379  -7.5379  -7.5192  -6.2334   1.2265   1.5397   4.3003   4.3003
     6.7319   6.8309   6.8309   8.2231  10.5740  13.6986  13.6986  13.7831

          k = 0.0000 0.0000 0.1572 (  4207 PWs)   bands (ev):

    -9.7153  -9.2983  -7.7197  -7.7197  -7.6739  -7.6721  -7.5994  -7.5549
    -7.5549  -7.5488  -7.5268  -6.2290   0.3966   2.5869   4.3534   4.3534
     6.7165   6.8219   6.8219   8.0293  10.3570  12.9215  12.9215  13.3893

          k = 0.0000 0.0000 0.3144 (  4200 PWs)   bands (ev):

    -9.7026  -9.2889  -7.6919  -7.6865  -7.6865  -7.6451  -7.5923  -7.5923
    -7.5813  -7.5616  -7.5450  -6.2219  -0.1435   3.5780   4.4432   4.4432
     6.6920   6.8047   6.8047   7.5293  10.2449  12.2537  12.2537  12.5586

          k = 0.0000 0.1971 0.0000 (  4183 PWs)   bands (ev):

    -9.6568  -9.3261  -7.7170  -7.7158  -7.6618  -7.6432  -7.6136  -7.5597
    -7.5493  -7.5341  -7.4271  -6.3347   1.0918   1.5408   4.4414   4.5291
     6.1427   6.5727   6.6461   8.1526  11.4501  12.0724  13.8427  13.9010

          k = 0.0000 0.1971 0.1572 (  4194 PWs)   bands (ev):

    -9.6535  -9.3231  -7.7127  -7.7020  -7.6516  -7.6498  -7.6123  -7.5685
    -7.5666  -7.5221  -7.4326  -6.3304   0.4984   2.2209   4.4320   4.5733
     6.2007   6.5657   6.6948   8.0100  11.2331  11.4932  13.2288  14.3898

          k = 0.0000 0.1971 0.3144 (  4191 PWs)   bands (ev):

    -9.6481  -9.3182  -7.6977  -7.6768  -7.6624  -7.6397  -7.6259  -7.5882
    -7.5528  -7.5283  -7.4411  -6.3235   0.0448   2.8756   4.3161   4.6481
     6.2889   6.5522   6.9971   7.6051  10.7695  11.0584  12.6307  14.3130

          k = 0.0000 0.3943 0.0000 (  4200 PWs)   bands (ev):

    -9.5208  -9.4001  -7.6751  -7.6729  -7.6358  -7.6338  -7.6001  -7.5690
    -7.5617  -7.5595  -7.1160  -6.6649   1.0290   1.3199   4.9546   5.1377
     5.6608   5.9159   6.3679   7.2729  11.4544  11.7629  14.1964  14.4322

          k = 0.0000 0.3943 0.1572 (  4212 PWs)   bands (ev):

    -9.5241  -9.4026  -7.6922  -7.6658  -7.6552  -7.6371  -7.5899  -7.5579
    -7.5567  -7.5344  -7.1129  -6.6599   0.8252   1.4770   4.7433   5.1612
     5.5621   5.9192   6.6600   7.3768  11.2267  11.7355  14.0687  14.3643

          k = 0.0000 0.3943 0.3144 (  4218 PWs)   bands (ev):

    -9.5294  -9.4066  -7.7072  -7.6877  -7.6549  -7.6385  -7.5702  -7.5561
    -7.5279  -7.5172  -7.1072  -6.6519   0.6133   1.6198   4.4898   5.2004
     5.3998   5.9238   7.1607   7.4325  10.8945  11.6555  13.6915  14.9652

          k = 0.1971 0.1971 0.0000 (  4205 PWs)   bands (ev):

    -9.6047  -9.3445  -7.7195  -7.6740  -7.6417  -7.6307  -7.6186  -7.5617
    -7.5445  -7.5285  -7.3521  -6.4062   0.8989   1.4409   4.3169   5.1229
     5.7660   6.0212   7.1320   7.9971  11.7936  11.8163  12.8475  13.1634

          k = 0.1971 0.1971 0.1572 (  4205 PWs)   bands (ev):

    -9.6040  -9.3427  -7.7059  -7.6826  -7.6385  -7.6355  -7.6040  -7.5733
    -7.5464  -7.5405  -7.3375  -6.3991   0.5120   1.8636   4.1451   5.1742
     5.9445   6.1125   7.1341   7.8221  11.5024  11.8462  11.8785  14.2593

          k = 0.1971 0.1971 0.3144 (  4204 PWs)   bands (ev):

    -9.6029  -9.3396  -7.6935  -7.6725  -7.6457  -7.6225  -7.6014  -7.5839
    -7.5818  -7.5366  -7.3144  -6.3880   0.1602   2.3250   3.8708   5.2831
     5.7967   6.7314   7.1377   7.4727  10.7283  11.6292  11.9635  14.9837

          k = 0.1971 0.3943 0.0000 (  4213 PWs)   bands (ev):

    -9.4999  -9.4053  -7.6725  -7.6451  -7.6334  -7.6265  -7.5844  -7.5536
    -7.5503  -7.5400  -7.0659  -6.6686   0.7424   1.0449   4.7083   5.3977
     5.8751   5.8949   6.9671   7.2393  11.0086  11.2697  13.3818  13.6863

          k = 0.1971 0.3943 0.1572 (  4203 PWs)   bands (ev):

    -9.5023  -9.4064  -7.6751  -7.6612  -7.6272  -7.6182  -7.5891  -7.5697
    -7.5406  -7.5346  -7.0450  -6.6544   0.6392   1.1524   4.3726   5.1816
     5.9979   6.2814   6.9620   7.2182  11.0522  11.3543  12.9564  13.9097

          k = 0.1971 0.3943 0.3144 (  4207 PWs)   bands (ev):

    -9.5063  -9.4082  -7.6886  -7.6700  -7.6299  -7.6150  -7.5788  -7.5638
    -7.5486  -7.5357  -7.0116  -6.6319   0.5187   1.2845   4.0212   4.9340
     6.0848   6.7073   6.9480   7.1773  11.0657  11.7950  12.5691  13.8664

          k = 0.3943 0.3943 0.0000 (  4199 PWs)   bands (ev):

    -9.4622  -9.4280  -7.6564  -7.6554  -7.6051  -7.5760  -7.5463  -7.5399
    -7.5288  -7.5139  -6.9144  -6.7395   0.3568   0.5041   4.9115   5.2413
     6.2202   6.9040   6.9228   7.3866   9.8773  10.0187  13.3138  13.5937

          k = 0.3943 0.3943 0.1572 (  4206 PWs)   bands (ev):

    -9.4627  -9.4276  -7.6517  -7.6459  -7.6053  -7.5767  -7.5637  -7.5506
    -7.5385  -7.5382  -6.8746  -6.7076   0.3568   0.5539   4.6028   5.0687
     6.3259   6.7333   6.9753   7.3861  10.3241  10.3351  13.2246  13.7459

          k = 0.3943 0.3943 0.3144 (  4186 PWs)   bands (ev):

    -9.4635  -9.4269  -7.6543  -7.6260  -7.6072  -7.5804  -7.5779  -7.5695
    -7.5667  -7.5577  -6.8160  -6.6595   0.3630   0.6316   4.2393   4.8331
     6.2231   6.5734   7.0309   7.3857  11.3031  11.3904  12.5562  13.6683

     the Fermi energy is     8.8751 ev

!    total energy              =   -1824.47266716 Ry
     Harris-Foulkes estimate   =   -1824.47266716 Ry
     estimated scf accuracy    <          9.1E-11 Ry

     total all-electron energy =    -83829.223382 Ry

     The total energy is the sum of the following terms:

     one-electron contribution =    -104.83682111 Ry
     hartree contribution      =      84.88087895 Ry
     xc contribution           =    -103.61520663 Ry
     ewald contribution        =    -224.95163317 Ry
     one-center paw contrib.   =   -1475.94988520 Ry
     smearing contrib. (-TS)   =       0.00000000 Ry

     convergence has been achieved in  28 iterations

     Forces acting on atoms (cartesian axes, Ry/au):

     atom    1 type  2   force =     0.00000000    0.00000000   -0.01223732
     atom    2 type  2   force =     0.00000000    0.00000000    0.01223732
     atom    3 type  1   force =     0.00000000    0.00000000   -0.00000000
     atom    4 type  1   force =     0.00000000    0.00000000    0.00000000

     Total force =     0.017306     Total SCF correction =     0.000001


     Computing stress (Cartesian axis) and pressure

          total   stress  (Ry/bohr**3)                   (kbar)     P=        7.13
   0.00006832   0.00000000   0.00000000           10.05        0.00        0.00
   0.00000000   0.00006832   0.00000000            0.00       10.05        0.00
   0.00000000   0.00000000   0.00000884            0.00        0.00        1.30


     number of scf cycles    =   3
     number of bfgs steps    =   2

     enthalpy old            =   -1824.4713985673 Ry
     enthalpy new            =   -1824.4726671618 Ry

     CASE: enthalpy_new < enthalpy_old

     new trust radius        =       0.0479728941 bohr
     new conv_thr            =       0.0000000012 Ry

     new unit-cell volume =    568.20526 a.u.^3 (    84.19933 Ang^3 )
     density =      8.80365 g/cm^3

CELL_PARAMETERS (alat=  7.51052754)
   1.024914856   0.000000000   0.000000000
   0.000000000   1.024914856   0.000000000
   0.000000000   0.000000000   1.276786683

ATOMIC_POSITIONS (crystal)
Pb            0.0000000000        0.5000000000        0.2368605247
Pb            0.5000000000        0.0000000000        0.7631394753
O             0.0000000000        0.0000000000        0.0000000000
O             0.5000000000        0.5000000000        0.0000000000



     Writing output data file ./basic.save/
     NEW-OLD atomic charge density approx. for the potential

     Check: negative core charge=   -0.000007
     extrapolated charge   40.94123, renormalised to   40.00000

     total cpu time spent up to now is      279.7 secs

     Self-consistent Calculation

     iteration #  1     ecut=    60.00 Ry     beta= 0.70
     Davidson diagonalization with overlap
     ethr =  1.00E-06,  avg # of iterations = 10.4

     negative rho (up, down):  9.301E-04 0.000E+00

     total cpu time spent up to now is      290.0 secs

     total energy              =   -1824.22578910 Ry
     Harris-Foulkes estimate   =   -1822.11139596 Ry
     estimated scf accuracy    <       0.24213045 Ry

     iteration #  2     ecut=    60.00 Ry     beta= 0.70
     Davidson diagonalization with overlap
     ethr =  6.05E-04,  avg # of iterations =  4.0

     total cpu time spent up to now is      295.7 secs

     total energy              =   -1824.36166968 Ry
     Harris-Foulkes estimate   =   -1824.77584194 Ry
     estimated scf accuracy    <       1.33093878 Ry

     iteration #  3     ecut=    60.00 Ry     beta= 0.70
     Davidson diagonalization with overlap
     ethr =  6.05E-04,  avg # of iterations =  3.0

     total cpu time spent up to now is      299.3 secs

     total energy              =   -1824.48259297 Ry
     Harris-Foulkes estimate   =   -1824.49439620 Ry
     estimated scf accuracy    <       0.12692568 Ry

     iteration #  4     ecut=    60.00 Ry     beta= 0.70
     Davidson diagonalization with overlap
     ethr =  3.17E-04,  avg # of iterations =  1.0

     total cpu time spent up to now is      302.0 secs

     total energy              =   -1824.48107211 Ry
     Harris-Foulkes estimate   =   -1824.48497851 Ry
     estimated scf accuracy    <       0.08445282 Ry

     iteration #  5     ecut=    60.00 Ry     beta= 0.70
     Davidson diagonalization with overlap
     ethr =  2.11E-04,  avg # of iterations =  1.0

     total cpu time spent up to now is      304.9 secs

     total energy              =   -1824.47812339 Ry
     Harris-Foulkes estimate   =   -1824.48226887 Ry
     estimated scf accuracy    <       0.06607628 Ry

     iteration #  6     ecut=    60.00 Ry     beta= 0.70
     Davidson diagonalization with overlap
     ethr =  1.65E-04,  avg # of iterations =  1.0

     total cpu time spent up to now is      308.2 secs

     total energy              =   -1824.47097471 Ry
     Harris-Foulkes estimate   =   -1824.47901239 Ry
     estimated scf accuracy    <       0.04551086 Ry

     iteration #  7     ecut=    60.00 Ry     beta= 0.70
     Davidson diagonalization with overlap
     ethr =  1.14E-04,  avg # of iterations =  1.1

     total cpu time spent up to now is      299.2 secs

     total energy              =   -1824.46980558 Ry
     Harris-Foulkes estimate   =   -1824.47308795 Ry
     estimated scf accuracy    <       0.01158780 Ry

     iteration #  8     ecut=    60.00 Ry     beta= 0.70
     Davidson diagonalization with overlap
     ethr =  2.90E-05,  avg # of iterations =  3.4

     total cpu time spent up to now is      303.3 secs

     total energy              =   -1824.47351460 Ry
     Harris-Foulkes estimate   =   -1824.47373876 Ry
     estimated scf accuracy    <       0.00109146 Ry

     iteration #  9     ecut=    60.00 Ry     beta= 0.70
     Davidson diagonalization with overlap
     ethr =  2.73E-06,  avg # of iterations =  3.8

     total cpu time spent up to now is      307.1 secs

     total energy              =   -1824.47384916 Ry
     Harris-Foulkes estimate   =   -1824.47383884 Ry
     estimated scf accuracy    <       0.00086823 Ry

     iteration # 10     ecut=    60.00 Ry     beta= 0.70
     Davidson diagonalization with overlap
     ethr =  2.17E-06,  avg # of iterations =  1.0

     total cpu time spent up to now is      309.8 secs

     total energy              =   -1824.47378550 Ry
     Harris-Foulkes estimate   =   -1824.47385723 Ry
     estimated scf accuracy    <       0.00092791 Ry

     iteration # 11     ecut=    60.00 Ry     beta= 0.70
     Davidson diagonalization with overlap
     ethr =  2.17E-06,  avg # of iterations =  2.5

     total cpu time spent up to now is      313.2 secs

     total energy              =   -1824.47350137 Ry
     Harris-Foulkes estimate   =   -1824.47402531 Ry
     estimated scf accuracy    <       0.00178529 Ry

     iteration # 12     ecut=    60.00 Ry     beta= 0.70
     Davidson diagonalization with overlap
     ethr =  2.17E-06,  avg # of iterations =  3.0

     total cpu time spent up to now is      317.6 secs

     total energy              =   -1824.47419772 Ry
     Harris-Foulkes estimate   =   -1824.47376968 Ry
     estimated scf accuracy    <       0.00040739 Ry

     iteration # 13     ecut=    60.00 Ry     beta= 0.70
     Davidson diagonalization with overlap
     ethr =  1.02E-06,  avg # of iterations =  3.8

     total cpu time spent up to now is      321.9 secs

     total energy              =   -1824.47361864 Ry
     Harris-Foulkes estimate   =   -1824.47437424 Ry
     estimated scf accuracy    <       0.00423866 Ry

     iteration # 14     ecut=    60.00 Ry     beta= 0.70
     Davidson diagonalization with overlap
     ethr =  1.02E-06,  avg # of iterations =  3.2

     total cpu time spent up to now is      325.9 secs

     total energy              =   -1824.47366796 Ry
     Harris-Foulkes estimate   =   -1824.47376629 Ry
     estimated scf accuracy    <       0.00049381 Ry

     iteration # 15     ecut=    60.00 Ry     beta= 0.70
     Davidson diagonalization with overlap
     ethr =  1.02E-06,  avg # of iterations =  1.1

     total cpu time spent up to now is      317.9 secs

     total energy              =   -1824.47368112 Ry
     Harris-Foulkes estimate   =   -1824.47368207 Ry
     estimated scf accuracy    <       0.00008554 Ry

     iteration # 16     ecut=    60.00 Ry     beta= 0.70
     Davidson diagonalization with overlap
     ethr =  2.14E-07,  avg # of iterations =  2.9

     total cpu time spent up to now is      320.9 secs

     total energy              =   -1824.47367914 Ry
     Harris-Foulkes estimate   =   -1824.47368906 Ry
     estimated scf accuracy    <       0.00004858 Ry

     iteration # 17     ecut=    60.00 Ry     beta= 0.70
     Davidson diagonalization with overlap
     ethr =  1.21E-07,  avg # of iterations =  3.9

     total cpu time spent up to now is      324.7 secs

     total energy              =   -1824.47369091 Ry
     Harris-Foulkes estimate   =   -1824.47369190 Ry
     estimated scf accuracy    <       0.00000264 Ry

     iteration # 18     ecut=    60.00 Ry     beta= 0.70
     Davidson diagonalization with overlap
     ethr =  6.61E-09,  avg # of iterations =  3.9

     total cpu time spent up to now is      329.0 secs

     total energy              =   -1824.47369178 Ry
     Harris-Foulkes estimate   =   -1824.47369197 Ry
     estimated scf accuracy    <       0.00000300 Ry

     iteration # 19     ecut=    60.00 Ry     beta= 0.70
     Davidson diagonalization with overlap
     ethr =  6.61E-09,  avg # of iterations =  1.0

     total cpu time spent up to now is      332.0 secs

     total energy              =   -1824.47369187 Ry
     Harris-Foulkes estimate   =   -1824.47369182 Ry
     estimated scf accuracy    <       0.00000171 Ry

     iteration # 20     ecut=    60.00 Ry     beta= 0.70
     Davidson diagonalization with overlap
     ethr =  4.27E-09,  avg # of iterations =  1.0

     total cpu time spent up to now is      335.2 secs

     total energy              =   -1824.47369181 Ry
     Harris-Foulkes estimate   =   -1824.47369188 Ry
     estimated scf accuracy    <       0.00000191 Ry

     iteration # 21     ecut=    60.00 Ry     beta= 0.70
     Davidson diagonalization with overlap
     ethr =  4.27E-09,  avg # of iterations =  1.0

     total cpu time spent up to now is      338.1 secs

     total energy              =   -1824.47369183 Ry
     Harris-Foulkes estimate   =   -1824.47369182 Ry
     estimated scf accuracy    <       0.00000140 Ry

     iteration # 22     ecut=    60.00 Ry     beta= 0.70
     Davidson diagonalization with overlap
     ethr =  3.50E-09,  avg # of iterations =  1.0

     total cpu time spent up to now is      340.9 secs

     total energy              =   -1824.47369171 Ry
     Harris-Foulkes estimate   =   -1824.47369184 Ry
     estimated scf accuracy    <       0.00000147 Ry

     iteration # 23     ecut=    60.00 Ry     beta= 0.70
     Davidson diagonalization with overlap
     ethr =  3.50E-09,  avg # of iterations =  1.0

     total cpu time spent up to now is      343.8 secs

     total energy              =   -1824.47369171 Ry
     Harris-Foulkes estimate   =   -1824.47369173 Ry
     estimated scf accuracy    <       0.00000089 Ry

     iteration # 24     ecut=    60.00 Ry     beta= 0.70
     Davidson diagonalization with overlap
     ethr =  2.24E-09,  avg # of iterations =  1.0

     total cpu time spent up to now is      335.3 secs

     total energy              =   -1824.47369165 Ry
     Harris-Foulkes estimate   =   -1824.47369173 Ry
     estimated scf accuracy    <       0.00000026 Ry

     iteration # 25     ecut=    60.00 Ry     beta= 0.70
     Davidson diagonalization with overlap
     ethr =  6.58E-10,  avg # of iterations =  3.9

     total cpu time spent up to now is      339.6 secs

     total energy              =   -1824.47369169 Ry
     Harris-Foulkes estimate   =   -1824.47369180 Ry
     estimated scf accuracy    <       0.00000031 Ry

     iteration # 26     ecut=    60.00 Ry     beta= 0.70
     Davidson diagonalization with overlap
     ethr =  6.58E-10,  avg # of iterations =  3.0

     total cpu time spent up to now is      343.2 secs

     total energy              =   -1824.47369171 Ry
     Harris-Foulkes estimate   =   -1824.47369171 Ry
     estimated scf accuracy    <       0.00000001 Ry

     iteration # 27     ecut=    60.00 Ry     beta= 0.70
     Davidson diagonalization with overlap
     ethr =  3.69E-11,  avg # of iterations =  3.4

     total cpu time spent up to now is      347.7 secs

     total energy              =   -1824.47369173 Ry
     Harris-Foulkes estimate   =   -1824.47369172 Ry
     estimated scf accuracy    <       0.00000004 Ry

     iteration # 28     ecut=    60.00 Ry     beta= 0.70
     Davidson diagonalization with overlap
     ethr =  3.69E-11,  avg # of iterations =  3.0

     total cpu time spent up to now is      350.7 secs

     total energy              =   -1824.47369173 Ry
     Harris-Foulkes estimate   =   -1824.47369173 Ry
     estimated scf accuracy    <          3.1E-09 Ry

     iteration # 29     ecut=    60.00 Ry     beta= 0.70
     Davidson diagonalization with overlap
     ethr =  7.82E-12,  avg # of iterations =  3.0

     total cpu time spent up to now is      354.7 secs

     End of self-consistent calculation

          k = 0.0000 0.0000 0.0000 (  4219 PWs)   bands (ev):

    -9.9221  -9.5643  -8.0352  -8.0352  -7.9920  -7.9569  -7.9123  -7.8526
    -7.8521  -7.8521  -7.8272  -6.5508   0.9834   1.3177   4.0392   4.0392
     6.4626   6.5030   6.5030   7.8529  10.1440  13.3127  13.3727  13.3727

          k = 0.0000 0.0000 0.1566 (  4207 PWs)   bands (ev):

    -9.9152  -9.5591  -8.0223  -8.0223  -7.9795  -7.9664  -7.9053  -7.8674
    -7.8674  -7.8567  -7.8341  -6.5471   0.2102   2.2834   4.0893   4.0893
     6.4465   6.4947   6.4947   7.7005   9.9246  12.6091  12.6091  12.9279

          k = 0.0000 0.0000 0.3133 (  4200 PWs)   bands (ev):

    -9.9041  -9.5508  -7.9931  -7.9931  -7.9819  -7.9563  -7.9004  -7.9004
    -7.8895  -7.8662  -7.8500  -6.5413  -0.3043   3.1864   4.1738   4.1738
     6.4208   6.4788   6.4788   7.2951   9.7895  11.9582  11.9582  12.1291

          k = 0.0000 0.1951 0.0000 (  4183 PWs)   bands (ev):

    -9.8620  -9.5808  -8.0200  -8.0156  -7.9702  -7.9390  -7.9203  -7.8731
    -7.8603  -7.8405  -7.7376  -6.6549   0.8375   1.2895   4.1931   4.2620
     5.8822   6.2523   6.3682   7.8142  11.0195  11.7549  13.4336  13.5647

          k = 0.0000 0.1951 0.1566 (  4194 PWs)   bands (ev):

    -9.8592  -9.5781  -8.0159  -8.0033  -7.9606  -7.9451  -7.9212  -7.8797
    -7.8739  -7.8316  -7.7416  -6.6512   0.2906   1.9128   4.1717   4.3039
     5.9491   6.2460   6.4156   7.6899  10.8017  11.1690  12.9045  13.9787

          k = 0.0000 0.1951 0.3133 (  4191 PWs)   bands (ev):

    -9.8547  -9.5737  -8.0023  -7.9808  -7.9562  -7.9458  -7.9378  -7.8992
    -7.8600  -7.8371  -7.7474  -6.6454  -0.1359   2.5139   4.0546   4.3747
     6.0303   6.2338   6.7062   7.3356  10.4541  10.6172  12.3215  13.8894

          k = 0.0000 0.3903 0.0000 (  4200 PWs)   bands (ev):

    -9.7420  -9.6400  -7.9824  -7.9720  -7.9436  -7.9349  -7.9122  -7.8732
    -7.8727  -7.8651  -7.4294  -6.9848   0.7515   1.0308   4.7217   4.8551
     5.4403   5.6134   6.1235   7.0176  11.1116  11.3978  13.7044  14.0650

          k = 0.0000 0.3903 0.1566 (  4212 PWs)   bands (ev):

    -9.7450  -9.6422  -7.9966  -7.9663  -7.9622  -7.9371  -7.9021  -7.8700
    -7.8630  -7.8426  -7.4261  -6.9803   0.5694   1.1783   4.5076   4.8777
     5.3322   5.6170   6.4121   7.1105  10.8868  11.3670  13.7100  13.8939

          k = 0.0000 0.3903 0.3133 (  4218 PWs)   bands (ev):

    -9.7499  -9.6457  -8.0097  -7.9909  -7.9578  -7.9390  -7.8840  -7.8689
    -7.8368  -7.8274  -7.4201  -6.9729   0.3793   1.3176   4.2515   4.9155
     5.1606   5.6222   6.8856   7.1606  10.5692  11.2758  13.3435  14.5064

          k = 0.1951 0.1951 0.0000 (  4205 PWs)   bands (ev):

    -9.8148  -9.5943  -8.0192  -7.9783  -7.9520  -7.9294  -7.9221  -7.8765
    -7.8499  -7.8423  -7.6606  -6.7294   0.6385   1.1658   4.0802   4.8463
     5.5266   5.7632   6.8137   7.6771  11.4108  11.5446  12.4906  12.7133

          k = 0.1951 0.1951 0.1566 (  4205 PWs)   bands (ev):

    -9.8143  -9.5927  -8.0065  -7.9857  -7.9480  -7.9342  -7.9104  -7.8863
    -7.8581  -7.8470  -7.6473  -6.7234   0.2847   1.5542   3.9035   4.8954
     5.6886   5.8641   6.8160   7.5200  11.1464  11.4313  11.6063  13.8281

          k = 0.1951 0.1951 0.3133 (  4204 PWs)   bands (ev):

    -9.8135  -9.5899  -7.9956  -7.9747  -7.9465  -7.9323  -7.9121  -7.8909
    -7.8901  -7.8435  -7.6262  -6.7138  -0.0412   1.9791   3.6355   4.9974
     5.5477   6.4430   6.8199   7.2123  10.3989  11.1922  11.6904  14.5540

          k = 0.1951 0.3903 0.0000 (  4213 PWs)   bands (ev):

    -9.7221  -9.6425  -7.9745  -7.9501  -7.9370  -7.9298  -7.8970  -7.8642
    -7.8596  -7.8500  -7.3807  -6.9920   0.4670   0.7525   4.4766   5.1537
     5.6135   5.6636   6.6575   6.9710  10.7152  10.9465  13.0255  13.2339

          k = 0.1951 0.3903 0.1566 (  4203 PWs)   bands (ev):

    -9.7244  -9.6435  -7.9778  -7.9632  -7.9324  -7.9220  -7.9011  -7.8771
    -7.8522  -7.8446  -7.3620  -6.9796   0.3752   0.8548   4.1555   4.9508
     5.7065   6.0349   6.6554   6.9498  10.7403  11.0441  12.5749  13.4931

          k = 0.1951 0.3903 0.3133 (  4207 PWs)   bands (ev):

    -9.7281  -9.6451  -7.9900  -7.9719  -7.9359  -7.9186  -7.8901  -7.8746
    -7.8582  -7.8442  -7.3322  -6.9598   0.2694   0.9818   3.8122   4.7138
     5.7833   6.4146   6.6525   6.9137  10.7363  11.4561  12.2383  13.4923

          k = 0.3903 0.3903 0.0000 (  4199 PWs)   bands (ev):

    -9.6876  -9.6589  -7.9576  -7.9557  -7.9103  -7.8821  -7.8620  -7.8553
    -7.8397  -7.8277  -7.2363  -7.0668   0.0847   0.2220   4.6895   5.0166
     5.9857   6.6126   6.6362   7.0624   9.6299   9.7455  12.9920  13.2459

          k = 0.3903 0.3903 0.1566 (  4206 PWs)   bands (ev):

    -9.6881  -9.6586  -7.9531  -7.9470  -7.9102  -7.8829  -7.8761  -7.8643
    -7.8503  -7.8488  -7.2014  -7.0390   0.0866   0.2704   4.3970   4.8538
     6.0732   6.4733   6.6607   7.0622  10.0471  10.0780  12.8604  13.3648

          k = 0.3903 0.3903 0.3133 (  4186 PWs)   bands (ev):

    -9.6889  -9.6581  -7.9550  -7.9280  -7.9113  -7.8878  -7.8871  -7.8804
    -7.8752  -7.8683  -7.1497  -6.9967   0.0958   0.3460   4.0476   4.6305
     5.9652   6.3166   6.7122   7.0619  11.0001  11.1222  12.2005  13.2760

     the Fermi energy is     8.5030 ev

!    total energy              =   -1824.47369173 Ry
     Harris-Foulkes estimate   =   -1824.47369173 Ry
     estimated scf accuracy    <          1.3E-10 Ry

     total all-electron energy =    -83829.224406 Ry

     The total energy is the sum of the following terms:

     one-electron contribution =    -108.90044180 Ry
     hartree contribution      =      86.47095947 Ry
     xc contribution           =    -103.58410290 Ry
     ewald contribution        =    -222.51139672 Ry
     one-center paw contrib.   =   -1475.94870978 Ry
     smearing contrib. (-TS)   =       0.00000000 Ry

     convergence has been achieved in  29 iterations

     Forces acting on atoms (cartesian axes, Ry/au):

     atom    1 type  2   force =     0.00000000    0.00000000   -0.01228127
     atom    2 type  2   force =     0.00000000    0.00000000    0.01228127
     atom    3 type  1   force =     0.00000000    0.00000000    0.00000000
     atom    4 type  1   force =     0.00000000    0.00000000    0.00000000

     Total force =     0.017368     Total SCF correction =     0.000005


     Computing stress (Cartesian axis) and pressure

          total   stress  (Ry/bohr**3)                   (kbar)     P=       -3.21
  -0.00002450   0.00000000   0.00000000           -3.60        0.00        0.00
   0.00000000  -0.00002450   0.00000000            0.00       -3.60        0.00
   0.00000000   0.00000000  -0.00001649            0.00        0.00       -2.43


     number of scf cycles    =   4
     number of bfgs steps    =   3

     enthalpy old            =   -1824.4726671618 Ry
     enthalpy new            =   -1824.4736917307 Ry

     CASE: enthalpy_new < enthalpy_old

     new trust radius        =       0.0279286671 bohr
     new conv_thr            =       0.0000000010 Ry

     new unit-cell volume =    574.24756 a.u.^3 (    85.09471 Ang^3 )
     density =      8.71101 g/cm^3

CELL_PARAMETERS (alat=  7.51052754)
   1.029481185   0.000000000   0.000000000
   0.000000000   1.029481185   0.000000000
   0.000000000   0.000000000   1.278942444

ATOMIC_POSITIONS (crystal)
Pb            0.0000000000        0.5000000000        0.2339480549
Pb            0.5000000000        0.0000000000        0.7660519451
O             0.0000000000        0.0000000000        0.0000000000
O             0.5000000000        0.5000000000        0.0000000000



     Writing output data file ./basic.save/
     NEW-OLD atomic charge density approx. for the potential

     Check: negative core charge=   -0.000007
     extrapolated charge   40.42084, renormalised to   40.00000

     total cpu time spent up to now is      353.5 secs

     Self-consistent Calculation

     iteration #  1     ecut=    60.00 Ry     beta= 0.70
     Davidson diagonalization with overlap
     ethr =  1.00E-06,  avg # of iterations =  8.9

     total cpu time spent up to now is      362.9 secs

     total energy              =   -1824.42496345 Ry
     Harris-Foulkes estimate   =   -1823.38952460 Ry
     estimated scf accuracy    <       0.04847854 Ry

     iteration #  2     ecut=    60.00 Ry     beta= 0.70
     Davidson diagonalization with overlap
     ethr =  1.21E-04,  avg # of iterations =  4.0

     total cpu time spent up to now is      425.0 secs

     total energy              =   -1824.44804637 Ry
     Harris-Foulkes estimate   =   -1824.53450655 Ry
     estimated scf accuracy    <       0.28533823 Ry

     iteration #  3     ecut=    60.00 Ry     beta= 0.70
     Davidson diagonalization with overlap
     ethr =  1.21E-04,  avg # of iterations =  3.0

     total cpu time spent up to now is      428.8 secs

     total energy              =   -1824.47562045 Ry
     Harris-Foulkes estimate   =   -1824.47802473 Ry
     estimated scf accuracy    <       0.02507113 Ry

     iteration #  4     ecut=    60.00 Ry     beta= 0.70
     Davidson diagonalization with overlap
     ethr =  6.27E-05,  avg # of iterations =  1.0

     total cpu time spent up to now is      431.6 secs

     total energy              =   -1824.47547003 Ry
     Harris-Foulkes estimate   =   -1824.47620050 Ry
     estimated scf accuracy    <       0.01707491 Ry

     iteration #  5     ecut=    60.00 Ry     beta= 0.70
     Davidson diagonalization with overlap
     ethr =  4.27E-05,  avg # of iterations =  1.0

     total cpu time spent up to now is      434.4 secs

     total energy              =   -1824.47513398 Ry
     Harris-Foulkes estimate   =   -1824.47572745 Ry
     estimated scf accuracy    <       0.01339664 Ry

     iteration #  6     ecut=    60.00 Ry     beta= 0.70
     Davidson diagonalization with overlap
     ethr =  3.35E-05,  avg # of iterations =  1.0

     total cpu time spent up to now is      437.5 secs

     total energy              =   -1824.47336597 Ry
     Harris-Foulkes estimate   =   -1824.47529290 Ry
     estimated scf accuracy    <       0.01022052 Ry

     iteration #  7     ecut=    60.00 Ry     beta= 0.70
     Davidson diagonalization with overlap
     ethr =  2.56E-05,  avg # of iterations =  1.1

     total cpu time spent up to now is      440.5 secs

     total energy              =   -1824.47322179 Ry
     Harris-Foulkes estimate   =   -1824.47387470 Ry
     estimated scf accuracy    <       0.00225511 Ry

     iteration #  8     ecut=    60.00 Ry     beta= 0.70
     Davidson diagonalization with overlap
     ethr =  5.64E-06,  avg # of iterations =  3.2

     total cpu time spent up to now is      444.9 secs

     total energy              =   -1824.47407044 Ry
     Harris-Foulkes estimate   =   -1824.47413642 Ry
     estimated scf accuracy    <       0.00040294 Ry

     iteration #  9     ecut=    60.00 Ry     beta= 0.70
     Davidson diagonalization with overlap
     ethr =  1.01E-06,  avg # of iterations =  1.8

     total cpu time spent up to now is      447.9 secs

     total energy              =   -1824.47414862 Ry
     Harris-Foulkes estimate   =   -1824.47410276 Ry
     estimated scf accuracy    <       0.00015722 Ry

     iteration # 10     ecut=    60.00 Ry     beta= 0.70
     Davidson diagonalization with overlap
     ethr =  3.93E-07,  avg # of iterations =  2.1

     total cpu time spent up to now is      438.6 secs

     total energy              =   -1824.47412271 Ry
     Harris-Foulkes estimate   =   -1824.47415878 Ry
     estimated scf accuracy    <       0.00040800 Ry

     iteration # 11     ecut=    60.00 Ry     beta= 0.70
     Davidson diagonalization with overlap
     ethr =  3.93E-07,  avg # of iterations =  1.0

     total cpu time spent up to now is      441.5 secs

     total energy              =   -1824.47404646 Ry
     Harris-Foulkes estimate   =   -1824.47412535 Ry
     estimated scf accuracy    <       0.00027300 Ry

     iteration # 12     ecut=    60.00 Ry     beta= 0.70
     Davidson diagonalization with overlap
     ethr =  3.93E-07,  avg # of iterations =  3.0

     total cpu time spent up to now is      445.8 secs

     total energy              =   -1824.47413106 Ry
     Harris-Foulkes estimate   =   -1824.47412605 Ry
     estimated scf accuracy    <       0.00019653 Ry

     iteration # 13     ecut=    60.00 Ry     beta= 0.70
     Davidson diagonalization with overlap
     ethr =  3.93E-07,  avg # of iterations =  1.0

     total cpu time spent up to now is      448.5 secs

     total energy              =   -1824.47408083 Ry
     Harris-Foulkes estimate   =   -1824.47413150 Ry
     estimated scf accuracy    <       0.00021823 Ry

     iteration # 14     ecut=    60.00 Ry     beta= 0.70
     Davidson diagonalization with overlap
     ethr =  3.93E-07,  avg # of iterations =  1.2

     total cpu time spent up to now is      451.5 secs

     total energy              =   -1824.47407420 Ry
     Harris-Foulkes estimate   =   -1824.47408689 Ry
     estimated scf accuracy    <       0.00003970 Ry

     iteration # 15     ecut=    60.00 Ry     beta= 0.70
     Davidson diagonalization with overlap
     ethr =  9.93E-08,  avg # of iterations =  3.0

     total cpu time spent up to now is      455.5 secs

     total energy              =   -1824.47408857 Ry
     Harris-Foulkes estimate   =   -1824.47408926 Ry
     estimated scf accuracy    <       0.00000859 Ry

     iteration # 16     ecut=    60.00 Ry     beta= 0.70
     Davidson diagonalization with overlap
     ethr =  2.15E-08,  avg # of iterations =  1.1

     total cpu time spent up to now is      458.6 secs

     total energy              =   -1824.47408773 Ry
     Harris-Foulkes estimate   =   -1824.47408900 Ry
     estimated scf accuracy    <       0.00001055 Ry

     iteration # 17     ecut=    60.00 Ry     beta= 0.70
     Davidson diagonalization with overlap
     ethr =  2.15E-08,  avg # of iterations =  1.0

     total cpu time spent up to now is      461.5 secs

     total energy              =   -1824.47408752 Ry
     Harris-Foulkes estimate   =   -1824.47408788 Ry
     estimated scf accuracy    <       0.00000307 Ry

     iteration # 18     ecut=    60.00 Ry     beta= 0.70
     Davidson diagonalization with overlap
     ethr =  7.68E-09,  avg # of iterations =  1.4

     total cpu time spent up to now is      464.3 secs

     total energy              =   -1824.47408736 Ry
     Harris-Foulkes estimate   =   -1824.47408765 Ry
     estimated scf accuracy    <       0.00000097 Ry

     iteration # 19     ecut=    60.00 Ry     beta= 0.70
     Davidson diagonalization with overlap
     ethr =  2.43E-09,  avg # of iterations =  4.0

     total cpu time spent up to now is      458.6 secs

     total energy              =   -1824.47408819 Ry
     Harris-Foulkes estimate   =   -1824.47408839 Ry
     estimated scf accuracy    <       0.00000562 Ry

     iteration # 20     ecut=    60.00 Ry     beta= 0.70
     Davidson diagonalization with overlap
     ethr =  2.43E-09,  avg # of iterations =  1.0

     total cpu time spent up to now is      461.6 secs

     total energy              =   -1824.47408790 Ry
     Harris-Foulkes estimate   =   -1824.47408820 Ry
     estimated scf accuracy    <       0.00000439 Ry

     iteration # 21     ecut=    60.00 Ry     beta= 0.70
     Davidson diagonalization with overlap
     ethr =  2.43E-09,  avg # of iterations =  1.0

[...]
                           (   1   4   3   4   0   0   0)

     celldm(1)=   7.510528  celldm(2)=   0.000000  celldm(3)=   0.000000
     celldm(4)=   0.000000  celldm(5)=   0.000000  celldm(6)=   0.000000

     crystal axes: (cart. coord. in units of alat)
               a(1) = (   1.022446   0.000000   0.000000 )  
               a(2) = (   0.000000   1.022446   0.000000 )  
               a(3) = (   0.000000   0.000000   1.390398 )  

     reciprocal axes: (cart. coord. in units 2 pi/alat)
               b(1) = (  0.978047  0.000000  0.000000 )  
               b(2) = (  0.000000  0.978047  0.000000 )  
               b(3) = (  0.000000  0.000000  0.719219 )  


     PseudoPot. # 1 for O  read from file:
     ./O.pbe-n-kjpaw_psl.0.1.UPF
     MD5 check sum: 833c495a5d0f9b75bf046115549bffff
     Pseudo is Projector augmented-wave + core cor, Zval =  6.0
     Generated using "atomic" code by A. Dal Corso v.6.3
     Shape of augmentation charge: BESSEL
     Using radial grid of 1095 points,  4 beta functions with: 
                l(1) =   0
                l(2) =   0
                l(3) =   1
                l(4) =   1
     Q(r) pseudized with 0 coefficients 


     PseudoPot. # 2 for Pb read from file:
     ./Pb.pbe-dn-kjpaw_psl.0.2.2.UPF
     MD5 check sum: f59221ed870a8203cfe6076f2d6248d0
     Pseudo is Projector augmented-wave + core cor, Zval = 14.0
     Generated using "atomic" code by A. Dal Corso v.5.0.2 svn rev. 9415
     Shape of augmentation charge: PSQ
     Using radial grid of 1281 points,  6 beta functions with: 
                l(1) =   0
                l(2) =   0
                l(3) =   1
                l(4) =   1
                l(5) =   2
                l(6) =   2
     Q(r) pseudized with 0 coefficients 


     atomic species   valence    mass     pseudopotential
        O              6.00    15.99900     O ( 1.00)
        Pb            14.00   207.20000     Pb( 1.00)

     16 Sym. Ops., with inversion, found ( 8 have fractional translation)



   Cartesian axes

     site n.     atom                  positions (alat units)
         1           Pb  tau(   1) = (   0.0000000   0.5112229   0.2999894  )
         2           Pb  tau(   2) = (   0.5112229   0.0000000   1.0904082  )
         3           O   tau(   3) = (   0.0000000   0.0000000   0.0000000  )
         4           O   tau(   4) = (   0.5112229   0.5112229   0.0000000  )

     number of k points=    18  Marzari-Vanderbilt smearing, width (Ry)=  0.0050
                       cart. coord. in units 2pi/alat
        k(    1) = (   0.0000000   0.0000000   0.0000000), wk =   0.0160000
        k(    2) = (   0.0000000   0.0000000   0.1438437), wk =   0.0320000
        k(    3) = (   0.0000000   0.0000000   0.2876875), wk =   0.0320000
        k(    4) = (   0.0000000   0.1956094   0.0000000), wk =   0.0640000
        k(    5) = (   0.0000000   0.1956094   0.1438437), wk =   0.1280000
        k(    6) = (   0.0000000   0.1956094   0.2876875), wk =   0.1280000
        k(    7) = (   0.0000000   0.3912188   0.0000000), wk =   0.0640000
        k(    8) = (   0.0000000   0.3912188   0.1438437), wk =   0.1280000
        k(    9) = (   0.0000000   0.3912188   0.2876875), wk =   0.1280000
        k(   10) = (   0.1956094   0.1956094   0.0000000), wk =   0.0640000
        k(   11) = (   0.1956094   0.1956094   0.1438437), wk =   0.1280000
        k(   12) = (   0.1956094   0.1956094   0.2876875), wk =   0.1280000
        k(   13) = (   0.1956094   0.3912188   0.0000000), wk =   0.1280000
        k(   14) = (   0.1956094   0.3912188   0.1438437), wk =   0.2560000
        k(   15) = (   0.1956094   0.3912188   0.2876875), wk =   0.2560000
        k(   16) = (   0.3912188   0.3912188   0.0000000), wk =   0.0640000
        k(   17) = (   0.3912188   0.3912188   0.1438437), wk =   0.1280000
        k(   18) = (   0.3912188   0.3912188   0.2876875), wk =   0.1280000

     Dense  grid:    38575 G-vectors     FFT dimensions: (  40,  40,  54)

     Estimated max dynamical RAM per process >      95.65 MB

     Estimated total dynamical RAM >     191.31 MB

     Check: negative core charge=   -0.000006

     Initial potential from superposition of free atoms

     starting charge   39.99529, renormalised to   40.00000
     Starting wfcs are   26 randomized atomic wfcs
     Checking if some PAW data can be deallocated... 

     total cpu time spent up to now is     1582.8 secs

     Self-consistent Calculation

     iteration #  1     ecut=    60.00 Ry     beta= 0.70
     Davidson diagonalization with overlap
     c_bands:  1 eigenvalues not converged
     ethr =  1.00E-06,  avg # of iterations = 14.1

     total cpu time spent up to now is     1598.6 secs

     total energy              =   -1823.59866070 Ry
     Harris-Foulkes estimate   =   -1824.84614239 Ry
     estimated scf accuracy    <       1.51788406 Ry

     iteration #  2     ecut=    60.00 Ry     beta= 0.70
     Davidson diagonalization with overlap
     ethr =  3.79E-03,  avg # of iterations =  4.3

     total cpu time spent up to now is     1650.9 secs

     total energy              =   -1822.49177025 Ry
     Harris-Foulkes estimate   =   -1826.09034179 Ry
     estimated scf accuracy    <      11.70068103 Ry

     iteration #  3     ecut=    60.00 Ry     beta= 0.70
     Davidson diagonalization with overlap
     ethr =  3.79E-03,  avg # of iterations =  3.4

     total cpu time spent up to now is     1655.2 secs

     total energy              =   -1824.47856396 Ry
     Harris-Foulkes estimate   =   -1824.51165246 Ry
     estimated scf accuracy    <       0.16825394 Ry

     iteration #  4     ecut=    60.00 Ry     beta= 0.70
     Davidson diagonalization with overlap
     ethr =  4.21E-04,  avg # of iterations =  1.9

     total cpu time spent up to now is     1658.5 secs

     total energy              =   -1824.46026817 Ry
     Harris-Foulkes estimate   =   -1824.48732256 Ry
     estimated scf accuracy    <       0.05887963 Ry

     iteration #  5     ecut=    60.00 Ry     beta= 0.70
     Davidson diagonalization with overlap
     ethr =  1.47E-04,  avg # of iterations =  2.7

     total cpu time spent up to now is     1661.9 secs

     total energy              =   -1824.47465399 Ry
     Harris-Foulkes estimate   =   -1824.47756999 Ry
     estimated scf accuracy    <       0.00934494 Ry

     iteration #  6     ecut=    60.00 Ry     beta= 0.70
     Davidson diagonalization with overlap
     ethr =  2.34E-05,  avg # of iterations =  3.0

     total cpu time spent up to now is     1665.5 secs

     total energy              =   -1824.47625649 Ry
     Harris-Foulkes estimate   =   -1824.47628625 Ry
     estimated scf accuracy    <       0.00021952 Ry

     iteration #  7     ecut=    60.00 Ry     beta= 0.70
     Davidson diagonalization with overlap
     ethr =  5.49E-07,  avg # of iterations =  4.6

     total cpu time spent up to now is     1672.7 secs

     total energy              =   -1824.47673491 Ry
     Harris-Foulkes estimate   =   -1824.47672867 Ry
     estimated scf accuracy    <       0.00053467 Ry

     iteration #  8     ecut=    60.00 Ry     beta= 0.70
     Davidson diagonalization with overlap
     ethr =  5.49E-07,  avg # of iterations =  2.1

     total cpu time spent up to now is     1676.1 secs

     total energy              =   -1824.47658575 Ry
     Harris-Foulkes estimate   =   -1824.47676100 Ry
     estimated scf accuracy    <       0.00078019 Ry

     iteration #  9     ecut=    60.00 Ry     beta= 0.70
     Davidson diagonalization with overlap
     ethr =  5.49E-07,  avg # of iterations =  3.0

     total cpu time spent up to now is     1668.0 secs

     total energy              =   -1824.47664642 Ry
     Harris-Foulkes estimate   =   -1824.47665712 Ry
     estimated scf accuracy    <       0.00003468 Ry

     iteration # 10     ecut=    60.00 Ry     beta= 0.70
     Davidson diagonalization with overlap
     ethr =  8.67E-08,  avg # of iterations =  2.0

     total cpu time spent up to now is     1671.4 secs

     total energy              =   -1824.47665165 Ry
     Harris-Foulkes estimate   =   -1824.47665181 Ry
     estimated scf accuracy    <       0.00000043 Ry

     iteration # 11     ecut=    60.00 Ry     beta= 0.70
     Davidson diagonalization with overlap
     ethr =  1.09E-09,  avg # of iterations =  4.3

     total cpu time spent up to now is     1678.2 secs

     total energy              =   -1824.47665273 Ry
     Harris-Foulkes estimate   =   -1824.47665278 Ry
     estimated scf accuracy    <       0.00000102 Ry

     iteration # 12     ecut=    60.00 Ry     beta= 0.70
     Davidson diagonalization with overlap
     ethr =  1.09E-09,  avg # of iterations =  1.0

     total cpu time spent up to now is     1681.2 secs

     total energy              =   -1824.47665268 Ry
     Harris-Foulkes estimate   =   -1824.47665274 Ry
     estimated scf accuracy    <       0.00000046 Ry

     iteration # 13     ecut=    60.00 Ry     beta= 0.70
     Davidson diagonalization with overlap
     ethr =  1.09E-09,  avg # of iterations =  3.0

     total cpu time spent up to now is     1684.8 secs

     total energy              =   -1824.47665273 Ry
     Harris-Foulkes estimate   =   -1824.47665273 Ry
     estimated scf accuracy    <       0.00000003 Ry

     iteration # 14     ecut=    60.00 Ry     beta= 0.70
     Davidson diagonalization with overlap
     ethr =  7.43E-11,  avg # of iterations =  4.0

     total cpu time spent up to now is     1689.9 secs

     total energy              =   -1824.47665274 Ry
     Harris-Foulkes estimate   =   -1824.47665276 Ry
     estimated scf accuracy    <       0.00000013 Ry

     iteration # 15     ecut=    60.00 Ry     beta= 0.70
     Davidson diagonalization with overlap
     ethr =  7.43E-11,  avg # of iterations =  2.0

     total cpu time spent up to now is     1693.2 secs

     total energy              =   -1824.47665272 Ry
     Harris-Foulkes estimate   =   -1824.47665274 Ry
     estimated scf accuracy    <       0.00000005 Ry

     iteration # 16     ecut=    60.00 Ry     beta= 0.70
     Davidson diagonalization with overlap
     ethr =  7.43E-11,  avg # of iterations =  3.0

     total cpu time spent up to now is     1685.0 secs

     total energy              =   -1824.47665273 Ry
     Harris-Foulkes estimate   =   -1824.47665273 Ry
     estimated scf accuracy    <          1.6E-10 Ry

     iteration # 17     ecut=    60.00 Ry     beta= 0.70
     Davidson diagonalization with overlap
     ethr =  4.00E-13,  avg # of iterations =  4.2

     total cpu time spent up to now is     1690.1 secs

     End of self-consistent calculation

          k = 0.0000 0.0000 0.0000 (  4813 PWs)   bands (ev):

   -10.9040 -10.5241  -8.9180  -8.9180  -8.8726  -8.8618  -8.7957  -8.7580
    -8.7580  -8.7486  -8.7264  -7.4234  -0.1955   0.8124   3.1138   3.1138
     5.5212   5.5450   5.5450   6.9622   8.8841  11.5420  12.8663  12.8663

          k = 0.0000 0.0000 0.1438 (  4850 PWs)   bands (ev):

   -10.9015 -10.5225  -8.9115  -8.9115  -8.8686  -8.8650  -8.7933  -8.7654
    -8.7654  -8.7490  -8.7288  -7.4220  -0.5716   1.3411   3.1366   3.1366
     5.5139   5.5394   5.5394   6.7420   8.7986  11.5434  12.0215  12.0215

          k = 0.0000 0.0000 0.2877 (  4830 PWs)   bands (ev):

   -10.8974 -10.5200  -8.8991  -8.8991  -8.8702  -8.8619  -8.7889  -8.7791
    -8.7791  -8.7496  -8.7332  -7.4197  -0.9279   1.9897   3.1744   3.1744
     5.5025   5.5298   5.5298   6.3143   8.7651  11.2894  11.4953  11.4953

          k = 0.0000 0.1956 0.0000 (  4833 PWs)   bands (ev):

   -10.8442 -10.5439  -8.9092  -8.8980  -8.8521  -8.8406  -8.8190  -8.7719
    -8.7503  -8.7337  -8.6321  -7.5298  -0.2630   0.6969   3.2047   3.3310
     4.9560   5.2943   5.4190   6.9080   9.7923  11.0730  11.9693  12.2946

          k = 0.0000 0.1956 0.1438 (  4850 PWs)   bands (ev):

   -10.8432 -10.5431  -8.9061  -8.8934  -8.8479  -8.8428  -8.8224  -8.7757
    -8.7527  -8.7315  -8.6322  -7.5284  -0.5318   1.0347   3.1745   3.3500
     5.0230   5.2898   5.4647   6.7512   9.6590  10.4704  12.3132  12.4976

          k = 0.0000 0.1956 0.2877 (  4863 PWs)   bands (ev):

   -10.8415 -10.5418  -8.8997  -8.8859  -8.8466  -8.8386  -8.8311  -8.7845
    -8.7503  -8.7325  -8.6319  -7.5262  -0.8148   1.4521   3.0916   3.3814
     5.1133   5.2819   5.6998   6.3601   9.5300   9.9094  11.8389  12.7260

          k = 0.0000 0.3912 0.0000 (  4813 PWs)   bands (ev):

   -10.7213 -10.6113  -8.8868  -8.8575  -8.8559  -8.8272  -8.7965  -8.7643
    -8.7473  -8.7446  -8.3159  -7.8651  -0.2126   0.2322   3.6909   3.9117
     4.4864   4.6593   5.2575   6.1858  10.1591  10.2277  12.2110  12.9236

          k = 0.0000 0.3912 0.1438 (  4827 PWs)   bands (ev):

   -10.7224 -10.6121  -8.8906  -8.8624  -8.8575  -8.8295  -8.7906  -8.7623
    -8.7445  -8.7372  -8.3137  -7.8631  -0.3055   0.3072   3.5610   3.9215
     4.4204   4.6597   5.4828   6.2281   9.9155  10.2245  12.4780  13.1377

          k = 0.0000 0.3912 0.2877 (  4834 PWs)   bands (ev):

   -10.7242 -10.6135  -8.8953  -8.8731  -8.8576  -8.8321  -8.7808  -8.7605
    -8.7353  -8.7309  -8.3100  -7.8599  -0.4227   0.3971   3.3913   3.9376
     4.3170   4.6603   5.8890   6.2155   9.6222  10.1549  12.7826  13.0263

          k = 0.1956 0.1956 0.0000 (  4835 PWs)   bands (ev):

   -10.7959 -10.5590  -8.8978  -8.8766  -8.8362  -8.8321  -8.8096  -8.7750
    -8.7481  -8.7391  -8.5402  -7.6042  -0.4015   0.4883   3.0222   3.9357
     4.6729   4.7736   5.8695   6.7667  10.2209  10.9969  11.3829  11.7148

          k = 0.1956 0.1956 0.1438 (  4839 PWs)   bands (ev):

   -10.7957 -10.5585  -8.8907  -8.8802  -8.8345  -8.8334  -8.8070  -8.7789
    -8.7559  -8.7376  -8.5335  -7.6018  -0.5774   0.6954   2.9084   3.9622
     4.7338   4.9204   5.8701   6.6138  10.1379  10.4645  11.0462  12.6028

          k = 0.1956 0.1956 0.2877 (  4854 PWs)   bands (ev):

   -10.7954 -10.5576  -8.8855  -8.8759  -8.8402  -8.8261  -8.8083  -8.7819
    -8.7698  -8.7361  -8.5227  -7.5979  -0.7837   0.9684   2.7329   4.0111
     4.6640   5.3996   5.8712   6.2801   9.7536  10.1001  11.1198  13.2610

          k = 0.1956 0.3912 0.0000 (  4830 PWs)   bands (ev):

   -10.6987 -10.6121  -8.8651  -8.8448  -8.8382  -8.8186  -8.7883  -8.7603
    -8.7439  -8.7433  -8.2550  -7.8665  -0.4801  -0.0849   3.3931   4.1214
     4.7202   4.8864   5.7026   6.1004   9.9042   9.9507  12.1219  12.2199

          k = 0.1956 0.3912 0.1438 (  4819 PWs)   bands (ev):

   -10.6995 -10.6124  -8.8675  -8.8506  -8.8361  -8.8163  -8.7870  -8.7633
    -8.7460  -8.7405  -8.2465  -7.8613  -0.5283  -0.0336   3.2175   4.0227
     4.7602   5.1216   5.7090   6.0783   9.8186  10.1228  11.6934  12.6253

          k = 0.1956 0.3912 0.2877 (  4826 PWs)   bands (ev):

   -10.7007 -10.6128  -8.8729  -8.8527  -8.8393  -8.8147  -8.7806  -8.7635
    -8.7507  -8.7406  -8.2330  -7.8528  -0.5931   0.0378   2.9990   3.8879
     4.8056   5.4209   5.7483   6.0175   9.7600  10.3862  11.5349  12.6393

          k = 0.3912 0.3912 0.0000 (  4830 PWs)   bands (ev):

   -10.6585 -10.6269  -8.8442  -8.8385  -8.7988  -8.7786  -8.7644  -8.7540
    -8.7380  -8.7357  -8.0971  -7.9308  -0.8424  -0.6740   3.6165   3.9873
     5.1239   5.6994   5.7079   6.1168   9.0469   9.1093  12.0243  12.3118

          k = 0.3912 0.3912 0.1438 (  4844 PWs)   bands (ev):

   -10.6584 -10.6265  -8.8424  -8.8337  -8.7975  -8.7795  -8.7689  -8.7592
    -8.7456  -8.7440  -8.0825  -7.9193  -0.8441  -0.6516   3.4658   3.9084
     5.1788   5.6165   5.7223   6.1166   9.2962   9.4586  11.8112  12.4803

          k = 0.3912 0.3912 0.2877 (  4806 PWs)   bands (ev):

   -10.6582 -10.6258  -8.8416  -8.8245  -8.7929  -8.7839  -8.7729  -8.7676
    -8.7604  -8.7556  -8.0598  -7.9010  -0.8452  -0.6165   3.2627   3.7919
     5.1820   5.5074   5.7521   6.1165  10.0377  10.3606  11.1283  11.8325

     the Fermi energy is     6.9907 ev

!    total energy              =   -1824.47665273 Ry
     Harris-Foulkes estimate   =   -1824.47665273 Ry
     estimated scf accuracy    <          8.7E-12 Ry

     total all-electron energy =    -83829.227367 Ry

     The total energy is the sum of the following terms:

     one-electron contribution =    -137.05737328 Ry
     hartree contribution      =      99.20957311 Ry
     xc contribution           =    -103.58548313 Ry
     ewald contribution        =    -207.09606700 Ry
     one-center paw contrib.   =   -1475.94734483 Ry
     smearing contrib. (-TS)   =       0.00004240 Ry

     convergence has been achieved in  17 iterations

     Forces acting on atoms (cartesian axes, Ry/au):

     atom    1 type  2   force =     0.00000000    0.00000000    0.00014734
     atom    2 type  2   force =     0.00000000    0.00000000   -0.00014734
     atom    3 type  1   force =     0.00000000    0.00000000    0.00000000
     atom    4 type  1   force =     0.00000000    0.00000000    0.00000000

     Total force =     0.000208     Total SCF correction =     0.000002


     Computing stress (Cartesian axis) and pressure

          total   stress  (Ry/bohr**3)                   (kbar)     P=       -0.36
  -0.00000171   0.00000000   0.00000000           -0.25        0.00        0.00
   0.00000000  -0.00000171   0.00000000            0.00       -0.25        0.00
   0.00000000   0.00000000  -0.00000392            0.00        0.00       -0.58


     Writing output data file ./basic.save/

     init_run     :      8.95s CPU      9.74s WALL (       2 calls)
     electrons    :   1449.64s CPU   1574.59s WALL (      17 calls)
     update_pot   :     44.04s CPU     34.38s WALL (      15 calls)
     forces       :     31.61s CPU     -0.99s WALL (      17 calls)
     stress       :     64.03s CPU     79.85s WALL (      17 calls)

     Called by init_run:
     wfcinit      :      2.12s CPU      2.64s WALL (       2 calls)
     potinit      :      2.23s CPU      2.28s WALL (       2 calls)
     hinit0       :      4.16s CPU      4.26s WALL (       2 calls)

     Called by electrons:
     c_bands      :   1081.82s CPU   1118.54s WALL (     418 calls)
     sum_band     :    157.95s CPU    293.48s WALL (     418 calls)
     v_of_rho     :     11.82s CPU     12.32s WALL (     435 calls)
     newd         :     29.01s CPU     12.80s WALL (     435 calls)
     PAW_pot      :    179.67s CPU    136.61s WALL (     450 calls)
     mix_rho      :      2.59s CPU      2.70s WALL (     418 calls)

     Called by c_bands:
     init_us_2    :     15.62s CPU     68.61s WALL (   15966 calls)
     cegterg      :   1047.70s CPU   1049.67s WALL (    7524 calls)

     Called by sum_band:
     sum_band:bec :      0.34s CPU      0.35s WALL (    7794 calls)
     addusdens    :     26.90s CPU     33.45s WALL (     418 calls)

     Called by *egterg:
     h_psi        :    604.71s CPU    553.91s WALL (   26056 calls)
     s_psi        :     88.15s CPU     43.98s WALL (   26056 calls)
     g_psi        :      2.64s CPU      2.75s WALL (   18496 calls)
     cdiaghg      :     34.05s CPU     80.21s WALL (   25750 calls)

     Called by h_psi:
     h_psi:calbec :    106.37s CPU     87.65s WALL (   26056 calls)
     vloc_psi     :    405.80s CPU    393.79s WALL (   26056 calls)
     add_vuspsi   :     88.04s CPU     67.84s WALL (   26056 calls)

     General routines
     calbec       :    155.10s CPU    209.44s WALL (   35380 calls)
     fft          :      3.98s CPU      4.23s WALL (    5225 calls)
     ffts         :      0.33s CPU      0.37s WALL (     418 calls)
     fftw         :    420.51s CPU    397.64s WALL ( 1126784 calls)

     Parallel routines
     fft_scatt_xy :     60.22s CPU     62.30s WALL ( 1132427 calls)
     fft_scatt_yz :     87.70s CPU    134.57s WALL ( 1132427 calls)

     PWSCF        :  26m47.88s CPU  28m17.11s WALL


   This run was terminated on:   0:42:39  15Aug2020            

=------------------------------------------------------------------------------=
   JOB DONE.
=------------------------------------------------------------------------------=
