
     Program PWSCF v.6.5 starts on 16Aug2020 at 21:33:16 

     This program is part of the open-source Quantum ESPRESSO suite
     for quantum simulation of materials; please cite
         "P. Giannozzi et al., J. Phys.:Condens. Matter 21 395502 (2009);
         "P. Giannozzi et al., J. Phys.:Condens. Matter 29 465901 (2017);
          URL http://www.quantum-espresso.org", 
     in publications or presentations arising from this work. More details at
     http://www.quantum-espresso.org/quote

     Parallel version (MPI), running on     4 processors

     MPI processes distributed on     1 nodes
     R & G space division:  proc/nbgrp/npool/nimage =       4
     Reading input from basicdos.in

     Current dimensions of program PWSCF are:
     Max number of different atomic species (ntypx) = 10
     Max number of k-points (npk) =  40000
     Max angular momentum in pseudopotentials (lmaxx) =  3
     Message from routine volume:
     axis vectors are left-handed

     Atomic positions and unit cell read from directory:
     ./basic.save/                                                                                                                                                                                                                                                   
     Message from routine volume:
     axis vectors are left-handed


     IMPORTANT: XC functional enforced from input :
     Exchange-correlation= PBE
                           (   1   4   3   4   0   0   0)
     Any further DFT definition will be discarded
     Please, verify this is what you really want

               file Si.pbe-n-kjpaw_psl.1.0.0.UPF: wavefunction(s)  3S 3P renormalized

     Subspace diagonalization in iterative solution of the eigenvalue problem:
     a serial algorithm will be used

     Message from routine setup:
     using ibrav=0 with symmetry is DISCOURAGED, use correct ibrav instead

     Parallelization info
     --------------------
     sticks:   dense  smooth     PW     G-vecs:    dense   smooth      PW
     Min         183     183     55                 3234     3234     556
     Max         184     184     56                 3236     3236     558
     Sum         733     733    223                12939    12939    2229



     bravais-lattice index     =            0
     lattice parameter (alat)  =      10.2625  a.u.
     unit-cell volume          =     270.2116 (a.u.)^3
     number of atoms/cell      =            2
     number of atomic types    =            1
     number of electrons       =         8.00
     number of Kohn-Sham states=            8
     kinetic-energy cutoff     =      50.0000  Ry
     charge density cutoff     =     200.0000  Ry
     Exchange-correlation= PBE
                           (   1   4   3   4   0   0   0)

     celldm(1)=  10.262536  celldm(2)=   0.000000  celldm(3)=   0.000000
     celldm(4)=   0.000000  celldm(5)=   0.000000  celldm(6)=   0.000000

     crystal axes: (cart. coord. in units of alat)
               a(1) = (   0.500000   0.500000   0.000000 )  
               a(2) = (   0.500000   0.000000   0.500000 )  
               a(3) = (   0.000000   0.500000   0.500000 )  

     reciprocal axes: (cart. coord. in units 2 pi/alat)
               b(1) = (  1.000000  1.000000 -1.000000 )  
               b(2) = (  1.000000 -1.000000  1.000000 )  
               b(3) = ( -1.000000  1.000000  1.000000 )  


     PseudoPot. # 1 for Si read from file:
     ./Si.pbe-n-kjpaw_psl.1.0.0.UPF
     MD5 check sum: c39c59da582df4a0d9f10159256ea34e
     Pseudo is Projector augmented-wave + core cor, Zval =  4.0
     Generated using "atomic" code by A. Dal Corso v.6.3
     Shape of augmentation charge: PSQ
     Using radial grid of 1141 points,  6 beta functions with: 
                l(1) =   0
                l(2) =   0
                l(3) =   1
                l(4) =   1
                l(5) =   2
                l(6) =   2
     Q(r) pseudized with 0 coefficients 


     atomic species   valence    mass     pseudopotential
        Si             4.00    28.08500     Si( 1.00)

     48 Sym. Ops., with inversion, found (24 have fractional translation)



   Cartesian axes

     site n.     atom                  positions (alat units)
         1           Si  tau(   1) = (   0.0000000   0.0000000   0.0000000  )
         2           Si  tau(   2) = (   0.2500000   0.2500000   0.2500000  )

     number of k points=  1140 (tetrahedron method)

     Number of k-points >= 100: set verbosity='high' to print them.

     Dense  grid:    12939 G-vectors     FFT dimensions: (  36,  36,  36)

     Estimated max dynamical RAM per process >      12.62 MB

     Estimated total dynamical RAM >      50.50 MB

     The potential is recalculated from file :
     ./basic.save/charge-density

     Starting wfcs are    8 randomized atomic wfcs
     Checking if some PAW data can be deallocated... 

     Band Structure Calculation
     Davidson diagonalization with overlap

     ethr =  1.25E-10,  avg # of iterations = 20.1

     total cpu time spent up to now is      148.6 secs

     End of band structure calculation

     Number of k-points >= 100: set verbosity='high' to print the bands.

     the Fermi energy is     6.7789 ev

     Writing output data file ./basic.save/

     init_run     :      0.34s CPU      0.38s WALL (       1 calls)
     electrons    :     98.80s CPU    103.90s WALL (       1 calls)

     Called by init_run:
     wfcinit      :      0.00s CPU      0.00s WALL (       1 calls)
     potinit      :      0.14s CPU      0.15s WALL (       1 calls)
     hinit0       :      0.14s CPU      0.14s WALL (       1 calls)

     Called by electrons:
     c_bands      :     97.83s CPU    102.91s WALL (       1 calls)
     v_of_rho     :      0.01s CPU      0.01s WALL (       1 calls)
     newd         :      0.00s CPU      0.02s WALL (       1 calls)
     PAW_pot      :      0.13s CPU      0.14s WALL (       1 calls)

     Called by c_bands:
     init_us_2    :      0.20s CPU      0.23s WALL (    1140 calls)
     cegterg      :     89.71s CPU     93.59s WALL (    1558 calls)

     Called by sum_band:

     Called by *egterg:
     h_psi        :     71.80s CPU     75.09s WALL (   25575 calls)
     s_psi        :      3.65s CPU      3.80s WALL (   25575 calls)
     g_psi        :      0.24s CPU      0.25s WALL (   22877 calls)
     cdiaghg      :      4.31s CPU      4.45s WALL (   24017 calls)

     Called by h_psi:
     h_psi:calbec :      5.78s CPU      6.04s WALL (   25575 calls)
     vloc_psi     :     62.04s CPU     64.94s WALL (   25575 calls)
     add_vuspsi   :      3.66s CPU      3.80s WALL (   25575 calls)

     General routines
     calbec       :      5.71s CPU      5.97s WALL (   25575 calls)
     fft          :      0.01s CPU      0.01s WALL (      12 calls)
     fftw         :     57.71s CPU     60.43s WALL (  269790 calls)
     davcio       :      0.11s CPU      0.49s WALL (    2280 calls)

     Parallel routines
     fft_scatt_xy :      4.35s CPU      4.50s WALL (  269802 calls)
     fft_scatt_yz :     19.34s CPU     20.74s WALL (  269802 calls)

     PWSCF        :   2m21.45s CPU   2m32.35s WALL


   This run was terminated on:  21:35:48  16Aug2020            

=------------------------------------------------------------------------------=
   JOB DONE.
=------------------------------------------------------------------------------=
